system,mp_id,icsd_ids,composition,e_above_hull,Spacegroup Number,solid_state_synthesized_composition,solid_state_synthesized_structure,sss_highest_temperature(K),sss_pressure(GPa),sss_atmosphere,sss_mixing_condition,sss_cooling_condition,sss_heating_step,single_crystal,sss_precursor,other_synthesis_method,reference,reference_year,comment,google_translate
Na-Mo-O,mp-581919,"[424355, 151973]",Na6Mo11O36,0.004942183,C2/c,y,y,803,AP,,"{""step1"": {""grind method"": [""agate mortar""], ""wet/dry"": [], ""liquid"": []}}","{""step1"": {""cool rate"": [], ""cool time"": [{""value"": ""1"", ""unit"": ""day""}], ""cool medium"": [], ""cool type"": [], ""end temperature"": [{""value"": ""495"", ""unit"": ""C""}], ""remark"": []}, ""step2"": {""cool rate"": [], ""cool time"": [], ""cool medium"": [], ""cool type"": [""quench""], ""end temperature"": [""RT""], ""remark"": []}}",1,,"Na2MoO4, MoO3",,10.1002/zaac.200400119,2004,,FALSE
Na-Mo-O,mp-1204318,[93482],NaMo3O11,0.204867644,Pnma,?,?,,,,{},{},,,,,,,ICSD 93482 contain hydrogen,N/A
Na-Mo-O,mp-578610,[166514],NaMoO2,0,R-3m,y,y,673,0,vacuum,{},{},1,,"MoO2, NaO",,10.1021/acs.inorgchem.9b03688,2020,excess Na,FALSE
Na-Nb-O,mp-540706,[183855],Na2Nb4O11,0.023032031,R-3c,y,y,1048,AP,,"{""step1"": {""grind method"": [""agate mortar""], ""wet/dry"": [], ""liquid"": [""acetone""]}}","{""step1"": {""cool rate"": [], ""cool time"": [], ""cool medium"": [], ""cool type"": [""furnace cool""], ""end temperature"": [""RT""], ""remark"": []}}",1,,"NaNO3, Nb2O5",,10.1039/C1JM11848J,2011,high temperature phase of mp-1202153,FALSE
Na-Nb-O,mp-1202153,[166951],Na2Nb4O11,0.014161253,Cc,y,y,1273,AP,,"{""step1"": {""grind method"": [""agate mortar""], ""wet/dry"": [], ""liquid"": [""acetone""]}}",{},2,,"Na2CO3, Nb2O5",,10.1039/B921115B,2010,,FALSE
Na-Nb-O,mp-27247,[6116],Na3NbO4,0,C2/m,y,?,,,,{},{},,,"Na2CO3, Nb2O5",,10.1023/B:GPAC.0000032230.95016.30,2004,high temperature phase of cubic Na3NbO4; can be prepared as a mixture with cubic phase; uncertain phase percentage,FALSE
Na-Nb-O,mp-5477,"[24819, 72298]",Na5NbO5,0,C2/c,y,y,973,,,{},{},1,,"Na2O, Nb2O5",,10.1002/zaac.19926140809,1992,,TRUE
Na-Nb-O,mp-29162,[85052],NaNb10O18,0,P2_1/c,y,y,1173,,Ar,{},{},1,y,"NaNbO3, NbO, NbO2, B2O3",,10.1002/zaac.19895720102,1989,B2O3 as mineralizer,TRUE
Na-Nb-O,mp-707376,[48105],NaNb14O36,0.013799033,Immm,y,y,1423,,,{},"{""step1"": {""cool rate"": [], ""cool time"": [], ""cool medium"": [], ""cool type"": [""quench""], ""end temperature"": [""RT""], ""remark"": []}}",2,,"Nb2O5, NaNbO3",,10.1107/S0108768184001786,1984,,FALSE
Na-Nb-O,mp-623854,[202400],NaNb3O8,0,Pmmn,y,n,,,,{},{},,,"HNbO3·H2O, NaOH, H2O",ion exchange,10.1016/0022-4596(87)90157-5,1987,other phase of mp-14531,FALSE
Na-Nb-O,mp-14531,[63203],NaNb3O8,0.022997893,Ibam,y,y,1373,3,,{},"{""step1"": {""cool rate"": [], ""cool time"": [], ""cool medium"": [], ""cool type"": [""quench""], ""end temperature"": [""RT""], ""remark"": []}}",1,,"NaNbO3, Nb2O5",,10.1002/ange.19881000721,1988,,TRUE
Na-Nb-O,mp-1191321,[24108],NaNb6O16,0.038628615,Amm2,?,?,,,,{},{},,,,,,,ICSd 24108 contain hydrogen,N/A
Na-Nb-O,mp-3744,"[73111, 300244, 29282]",NaNbO2,0,P6_3/mmc,y,y,1123,0,vacuum,{},{},1,,"Na, NbO2",,10.1002/anie.199302541,1993,,FALSE
Na-Nb-O,mp-1199037,[76432],NaNbO3,0.039297628,P222_1,y,?,,,,{},{},,,,,10.1107/S0365110X51001768,1951,might be old refinement of mp-3671,FALSE
Na-Nb-O,mp-558920,[38314],NaNbO3,0.014425686,Pca2_1,y,?,,,,{},{},,,,,10.1016/0022-4596(84)90331-1,1984,doped: Li 2%,FALSE
Na-Nb-O,mp-1194823,[252486],NaNbO3,0.021460995,Pnma,y,y,,,,{},{},,,,,10.1103/PhysRevB.83.134105,2011,high temperature phase of mp-3671,FALSE
Na-Nb-O,mp-1198142,[262894],NaNbO3,0.024661807,Pmmn,y,?,,,,{},{},,,,,10.1021/ic3006585,2012,modelling of mp-1195803,FALSE
Na-Nb-O,mp-1195803,[252487],NaNbO3,0.02172439,Pnma,y,y,,,,{},{},,,,,10.1103/PhysRevB.83.134105,2011,high temperature phase of mp-3671,FALSE
Na-Nb-O,mp-1105765,"[192402, 192401, 247314, 192400, 247315, 247313, 192403]",NaNbO3,0.022032832,Pnma,y,?,,,,{},{},,,,,10.1021/ja101860r,2010,other refinement of mp-4681,FALSE
Na-Nb-O,mp-1190015,[247317],NaNbO3,0.016565241,Pmn2_1,y,?,,,,{},{},,,,,10.1021/ja101860r,2010,other refinement of mp-4681,FALSE
Na-Nb-O,mp-1203293,[262895],NaNbO3,0.020888103,Pnma,y,?,,,,{},{},,,,,10.1021/ic3006585,2012,modelling of mp-1195803,FALSE
Na-Nb-O,mp-1078295,"[5308, 193715]",NaNbO3,0,R-3,y,n,,,,{},{},,,,hydrothermal?,10.2109/jcersj.98.384,1990,other phase of mp-3671,FALSE
Na-Nb-O,mp-1199593,[262896],NaNbO3,0.029083189,Pmmn,y,?,,,,{},{},,,,,10.1021/ic3006585,2012,modelling of mp-1194823,FALSE
Na-Nb-O,mp-3671,"[252480, 250257, 190165, 23239, 97669, 247310, 89317, 247312]",NaNbO3,0.014416921,Pbcm,y,y,1223,,,"{""step1"": {""grind method"": [""agate mortar""], ""wet/dry"": [], ""liquid"": []}}","{""step1"": {""cool rate"": [], ""cool time"": [], ""cool medium"": [], ""cool type"": [""quench"", ""slow cooling""], ""end temperature"": [""RT""], ""remark"": []}}",1,,"Nb2O5, Na2CO3",,10.1021/ja101860r,2010,,FALSE
Na-Nb-O,mp-4419,"[23563, 192406, 236892, 280100]",NaNbO3,0.027673695,P4/mbm,y,y,,,,{},{},,,,,10.1103/PhysRevB.83.134105,2011,high temperature phase of mp-3671,FALSE
Na-Nb-O,mp-4748,"[192405, 192404, 280098, 23323]",NaNbO3,0.023515409,Cmcm,y,y,,,,{},{},,,,,10.1103/PhysRevB.83.134105,2011,high temperature phase of mp-3671,FALSE
Na-Nb-O,mp-3136,"[252485, 28585, 28569, 192408, 28578, 28579, 28570, 28581, 236890, 28576, 28584, 28573, 28568, 28567, 28564, 28565, 22064, 28575, 28590, 31867, 28583, 28588, 28586, 192407, 28589, 22065, 28577, 28587, 28582, 28574, 28566, 28571, 28572, 28580]",NaNbO3,0.041165052,Pm-3m,y,y,,,,{},{},,,,,10.1103/PhysRevB.83.134105,2011,high temperature phase of mp-3671,FALSE
Na-Nb-O,mp-4514,"[252479, 28152, 9645]",NaNbO3,0.010827206,R3c,y,y,,,,{},{},,,,,10.1107/S0567740873006308,1973,low temperature phase of mp-3671,FALSE
Na-Nb-O,mp-4681,"[247318, 247311, 173756, 39624, 74642]",NaNbO3,0.012815618,Pmc2_1,y,n,,,,{},{},,,,sol-gel,10.1021/ja101860r,2010,other phase of mp-3671,FALSE
Na-Nd-O,mp-8128,[31317],NaNdO2,0,I4_1/amd,y,y,1273,AP,,"{""step1"": {""grind method"": [""agate mortar""], ""wet/dry"": [], ""liquid"": []}}",{},1,,"Nd2O3, Na2CO3, NaNO3",,10.1016/j.jssc.2003.08.001,2003,excess Na compounds,FALSE
Na-Ni-O,mp-18765,[14159],Na2NiO2,0.056033594,Cmc2_1,y,y,873,,Ar,"{""step1"": {""grind method"": [""milling""], ""wet/dry"": [], ""liquid"": []}}",{},1,,"Na2O, NiO",,10.1021/acs.chemmater.5b02684,2015,,FALSE
Na-Ni-O,mp-21996,"[14163, 1583]",Na5NiO4,0,Pbca,y,y,923,,,{},{},1,y,"Na2O, NaNiO2",,10.1007/BF00440348,1978,,TRUE
Na-Ni-O,mp-1102157,[23735],NaNi3O8,0.408893292,Cm,?,?,,,,{},{},,,,,,,ICSD 23735 contain hydrogen,N/A
Na-Ni-O,mp-19149,"[85317, 26609, 153372, 159388, 415072]",NaNiO2,0,C2/m,y,y,953,,O2,{},{},2,,"Na2O2, NiO",,10.1016/j.solidstatesciences.2004.10.046,2005,,FALSE
Na-Np-O,mp-754019,[238526],Na4NpO5,0,I4/m,y,y,1100,,O2,{},{},1,,"NpO2, Na2CO3",,10.1021/acs.inorgchem.5b00462,2015,inhomogeneous,FALSE
Na-Np-O,mp-1095270,[238525],Na5NpO6,0,C2/m,y,y,1100,,O2,{},{},1,,"NpO2, Na2CO3",,10.1021/acs.inorgchem.5b00462,2015,,FALSE
Na-Os-O,mp-555792,[246504],NaOs2O6,0.022902866,Fd-3m,?,?,,,,{},{},,,,,10.1103/PhysRevB.72.024522,2005,modelling of NaOs2O6,FALSE
Na-Os-O,mp-1190635,"[261702, 248087]",Na2OsO4,0,P-62m,y,y,1173,6,,{},"{""step1"": {""cool rate"": [], ""cool time"": [], ""cool medium"": [], ""cool type"": [""quench""], ""end temperature"": [""RT""], ""remark"": []}}",1,,"Na2O2, OsO2",,10.1016/j.jssc.2009.12.007,2010,ICSD 261702 not found,FALSE
Na-Os-O,mp-555476,[416999],Na3OsO5,0,P3_121,y,y,673,,O2,"{""step1"": {""grind method"": [""agate mortar""], ""wet/dry"": [], ""liquid"": []}}","{""step1"": {""cool rate"": [{""value"": ""15"", ""unit"": ""C/h""}], ""cool time"": [], ""cool medium"": [], ""cool type"": [], ""end temperature"": [""RT""], ""remark"": []}}",1,,"Na2O2, Os",,10.1002/zaac.200600216,2006,inhomogeneous,FALSE
Na-Os-O,mp-20067,[49746],Na5OsO6,0,C2/m,y,y,1023,,O2,{},{},2,,"Na2O, Os",,10.1002/zaac.19855240503,1985,,TRUE
Na-Os-O,mp-1105218,[252431],NaOsO3,0,Pnma,y,y,1473,6,,{},"{""step1"": {""cool rate"": [], ""cool time"": [], ""cool medium"": [], ""cool type"": [""quench""], ""end temperature"": [""RT""], ""remark"": []}}",1,,"Na2O2, OsO2",,10.1103/PhysRevB.80.161104,2009,,FALSE
Na-Pb-O,mp-27622,[21058],Na2PbO2,0,Pbcn,y,y,973,,,{},{},1,y,"Na2O, PbO",,10.1002/zaac.19734000304,1973,inhomogeneous,TRUE
Na-Pb-O,mp-20088,[74859],Na4PbO4,0,P-1,y,y,873,,Ar,{},{},1,,"Na2O, PbO2",,10.1002/zaac.19946200803,1994,,TRUE
Na-Pb-O,mp-27623,[21059],Na6PbO4,0.060708906,I-43m,y,y,973,,Ar,{},{},1,y,"NaO0.59, PbO",,10.1002/zaac.19734000305,1973,,TRUE
Na-Pb-O,mp-563025,[15102],Na6PbO5,0.033768831,I4mm,y,?,,,,{},{},,,,,10.1002/zaac.19734000303,1973,old refinement of mp-557401,FALSE
Na-Pb-O,mp-557401,[21036],Na6PbO5,0,Cmcm,y,y,823,,Ar,{},{},1,,"PbO2, NaO0.59",,10.1002/zaac.19734000303,1973,,TRUE
Na-Pd-O,mp-27562,[6157],Na2Pd3O4,0,Immm,y,y,1173,,Ar,{},"{""step1"": {""cool rate"": [], ""cool time"": [], ""cool medium"": [], ""cool type"": [""quench"", ""slow cooling""], ""end temperature"": [""RT""], ""remark"": []}}",1,,"Na2O, PdO",,10.1002/zaac.19744090108,1974,,TRUE
Na-Pd-O,mp-13285,[245608],NaPd3O4,0,Pm-3n,y,y,923,0.00005,O2,{},{},1,,"Na2O2, PdO",,10.1016/j.jssc.2007.03.005,2007,excess Na2O2,FALSE
Na-Pr-O,mp-28429,[64664],Na2PrO3,0.120259666,C2/c,y,y,1073,,O2,{},{},1,,"Na2O2, Pr6O11",,10.1016/j.jallcom.2005.08.100,2006,,FALSE
Na-Pr-O,mp-8470,[61682],NaPrO2,0,I4_1/amd,y,y,923,,cover gas,{},{},1,,"Na2O, Pr6O11",,10.1016/0022-1902(81)80623-9,1981,,FALSE
Na-Pt-O,mp-22313,[25018],Na2PtO2,0,Immm,y,y,773,,O2 free,{},{},1,,"Na2O2, Pt",,10.1002/zaac.19723920104,1972,excess Na2O2,TRUE
Na-Pt-O,mp-557450,[25019],Na2PtO3,0.005052398,C2/c,y,y,,,,{},{},,,,,10.1515/znb-1976-0905,1976,"alpha phase; other phase of gamma Na2PtO3, which can be synthesized at a lower temperature via solid state synthesis",FALSE
Na-Pt-O,mp-560860,[25020],Na2PtO3,0,Fddd,y,y,,,,{},{},,,,,10.1515/znb-1976-0905,1976,"beta phase; other phase of gamma Na2PtO3, which can be synthesized via solid state synthesis",FALSE
Na-Pt-O,mp-20285,"[27052, 32546, 185930]",NaPt3O4,0,Pm-3n,y,y,1073,AP,,{},{},1,,"Pt, Na2CO3",,10.2109/jcersj2.121.884,2013,inhomogeneous,FALSE
Na-Re-O,mp-8253,[38382],Na5ReO6,0,C2/m,?,?,1023,,,{},{},1,,"Re2O7, Na2O",,10.1002/zaac.19845120504,1984,insufficient information: Re2O7 sublimes at temperature below the reaction temperature,TRUE
Na-Re-O,mp-5558,"[52337, 78831]",NaReO4,0,I4_1/a,y,y,773,0.4,,{},"{""step1"": {""cool rate"": [], ""cool time"": [{""value"": ""90"", ""unit"": ""min""}], ""cool medium"": [], ""cool type"": [], ""end temperature"": [{""value"": ""200"", ""unit"": ""C""}], ""remark"": []}, ""step2"": {""cool rate"": [], ""cool time"": [], ""cool medium"": [], ""cool type"": [""quench""], ""end temperature"": [""RT""], ""remark"": []}}",1,y,"Re, NaNO3",,10.1515/znb-1995-0921,1995,,FALSE
Na-Rh-O,mp-542675,[170598],NaRh2O4,0,Pnma,y,y,1773,6,,{},{},1,,"NaRhO2, KClO4, Rh2O3",,10.1021/cm0483846,2005,,FALSE
Na-Rh-O,mp-8830,[66280],NaRhO2,0,R-3m,y,y,1073,,O2,{},{},2,,"Na2O2, Rh",,10.1021/cm0483846,2004,,FALSE
Na-Ru-O,mp-1193175,[172608],NaRu2O4,0.005559654,Pnma,y,y,1173,,Ar,{},{},3,,"Na2CO3, RuO2",,10.1016/j.jssc.2005.10.016,2006,,FALSE
Na-Ru-O,mp-556058,[97584],Na2RuO3,0.000956802,C2/c,y,y,1123,,Ar,"{""step1"": {""grind method"": [""ball milling""], ""wet/dry"": [], ""liquid"": [""aceonte""]}}",{},1,,"NaHCO3, RuO2",,10.1016/j.elecom.2013.04.011,2013,,FALSE
Na-Ru-O,mp-542850,"[157318, 413644, 157319, 281692]",Na2RuO4,0,P2_1/c,y,y,873,0.22,O2,{},"{""step1"": {""cool rate"": [{""value"": ""12"", ""unit"": ""C/h""}], ""cool time"": [], ""cool medium"": [], ""cool type"": [], ""end temperature"": [""RT""], ""remark"": []}}",1,y,"Na2O2, RuO2, NaOH",,10.1002/zaac.200400012,2004,NaOH as mineralizer,FALSE
Na-Ru-O,mp-1198628,[153119],Na3RuO4,0,C2/m,y,y,923,,"O2,N2",{},{},2,,"NaOH, RuO2",,10.1016/j.jssc.2005.04.014,2005,,FALSE
Na-Ru-O,mp-7240,[170347],NaRuO2,0.07895834,R-3m,y,y,1273,,Ar,{},{},2,,"Na2RuO4, Ru",,10.1021/ic035324d,2004,,FALSE
Na-Sb-O,mp-30972,[914],Na2Sb4O7,0,C2/c,n,n,,,,{},{},,,"Na2O, Sb2O3, H2O",hydrothermal,10.1107/S0567740877005573,1977,,TRUE
Na-Sb-O,mp-8076,[23346],Na3SbO3,0,I-43m,y,y,823,,,{},{},2,,"Na2O, Sb2O3",,10.1002/zaac.19804680117,1980,,TRUE
Na-Sb-O,mp-7404,[10320],Na3SbO4,0,P2/c,y,y,873,,O2,{},"{""step1"": {""cool rate"": [{""value"": ""100"", ""unit"": ""C/h""}], ""cool time"": [], ""cool medium"": [], ""cool type"": [], ""end temperature"": [""RT""], ""remark"": []}}",1,,"Na2O, Na2O2, Sb2O3",,10.1016/j.jnucmat.2017.03.045,2017,,FALSE
Na-Sb-O,mp-27878,[28494],NaSb5O8,0.000160729,P-1,n,n,,,,{},{},,,"NaOH, Sb2O3, H2O",hydrothermal,"Revue de Chimie Minerale 13, 556 (1976)",1976,,TRUE
Na-Sb-O,mp-20011,[25540],NaSbO3,0.055102983,Fd-3m,y,?,,,,{},{},,,,,10.1002/zaac.19382380209,1938,might be other phase of mp-4482,FALSE
Na-Sb-O,mp-22212,[98978],NaSbO3,0.091874067,Pnma,y,y,,,,{},{},,,"NaCO3, Sb2O3",,10.1021/ja038365h,2004,high temperature/pressure phase of mp-4482,FALSE
Na-Sb-O,mp-4482,"[5312, 78011, 78416]",NaSbO3,0,R-3,y,y,1273,AP,,{},{},1,,"NaCO3, Sb2O3",,10.1021/ja038365h,2004,,FALSE
Na-Sb-O,mp-1197324,[25536],NaSbO6,0.652411168,P4_2/nnm,?,?,,,,{},{},,,,,,,ICSD 25536 contain hydrogen,N/A
Na-Sb-O,mp-1194956,"[239816, 422766, 4211]",NaSbO6,0.655329163,P4_2/n,?,?,,,,{},{},,,,,,,"ICSD 239816, 422766, 4211 contain hydrogen",N/A
Na-Sc-O,mp-7914,[25729],NaScO2,0,R-3m,y,y,1173,,N2,{},{},1,,"Na2O2, Sc2O3",,10.1149/1.2127629,1981,excess Na2O2; doped: Bi 0.5%,FALSE
Na-Se-O,mp-1105804,"[36068, 74447, 74448, 9360, 9376]",NaSe2O6,0.231221377,P2_1/c,?,?,,,,{},{},,,,,,,"ICSD 36068, 74447, 9360, 9376, 74448 contain hydrogen",N/A
Na-Se-O,mp-1204479,[73332],NaSe4O12,0.15066458,Pc,?,?,,,,{},{},,,,,,,ICSD 73332 contain hydrogen,N/A
Na-Se-O,mp-1190423,[428747],Na2Se2O7,0,P-1,y,y,573,AP,,{},{},1,,"Na2CO3, H2SeO4",,10.1002/zaac.201500182,2015,inhomogeneous,FALSE
Na-Se-O,mp-5416,"[89638, 280941]",Na2SeO3,0,P2_1/c,y,y,773,,,{},"{""step1"": {""cool rate"": [{""value"": ""5"", ""unit"": ""C/h""}], ""cool time"": [], ""cool medium"": [], ""cool type"": [], ""end temperature"": [""RT""], ""remark"": []}}",1,,"Na2O, SeO2",,10.1107/S1600536802019384,2002,,FALSE
Na-Se-O,mp-5141,"[150706, 16042, 15816, 27656]",Na2SeO4,0,Fddd,n,n,,,,{},{},,,Na2SeO4.10H2O,decomposition,10.1016/0022-3697(67)90312-5,1967,,FALSE
Na-Se-O,mp-29871,[411401],Na4SeO5,0,P-1,y,y,773,2.5,,{},{},1,,"Na2O, Na2SeO4",,10.1002/1521-3773(20001201)39:23<4362::AID-ANIE4362>3.0.CO;2-S,2000,,FALSE
Na-Se-O,mp-554443,[411402],Na6Se2O9,0.003493794,Pnma,y,y,773,AP,,{},{},1,,"Na2O, Na2SeO4",,10.1002/1521-3773(20001201)39:23<4362::AID-ANIE4362>3.0.CO;2-S,2000,,FALSE
Na-Se-O,mp-1180453,[22373],NaSeO3,0.074087208,C2/c,?,?,,,,{},{},,,,,,,ICSD 22373 contain hydrogen,N/A
Na-Se-O,mp-1197679,[32501],NaSeO3,0.205630768,C2/c,?,?,,,,{},{},,,,,,,ICSD 32501 contain hydrogen,N/A
Na-Sn-O,mp-1086677,[27146],Na2SnO6,0.566377932,R-3,?,?,,,,{},{},,,,,,,ICSD 27146 contain hydrogen,N/A
Na-Sn-O,mp-28261,[49624],Na4SnO3,0,Cc,y,y,953,,,{},{},1,,"NaO0.45, SnO",,10.1002/zaac.19845150813,1984,,TRUE
Na-Sn-O,mp-9655,[202818],Na4SnO4,0,P-1,?,?,,,,{},{},,,"LiSn, Ni2O2; KSn, Ni2O2",,"European Journal of Solid State and Inorganic Chemistry 25, 119 (1988)",1988,insufficient information: uncertain whether the synthesis is through flux or solid state reaction,FALSE
Na-Ta-O,mp-3285,"[201714, 40984]",Na2Ta4O11,0,R-3c,y,y,1123,AP,,{},{},1,,"Na2CO3, Ta2O5, NaHCO3",,www.persee.fr/doc/bulmi_0180-9210_1985_act_108_3_7848,1985,inhomogeneous,FALSE
Na-Ta-O,mp-8957,[72297],Na5TaO5,0,C2/c,y,y,973,,,{},{},1,,"Na2O, Ta2O5",,10.1002/zaac.19926140809,1992,,TRUE
Na-Ta-O,mp-14532,[63204],NaTa3O8,0.024234943,Ibam,y,y,1373,3.5,,{},{},1,,"NaTaO3, Ta2O5",,10.1002/ange.19881000721,1988,,TRUE
Na-Ta-O,mp-1180204,[78512],NaTa7O19,0.025002844,Pbam,?,?,,,,{},{},,,,,,,different stoichiometry: Li2NaTa7O19,N/A
Na-Ta-O,mp-4699,"[239691, 23320, 88376, 23321, 280099]",NaTaO3,0.001388071,Cmcm,y,y,,,,{},{},,,,,10.1016/j.jssc.2016.03.008,2016,high temperature phase of mp-3858,FALSE
Na-Ta-O,mp-3858,"[239690, 23319, 173757, 980, 88375, 150430]",NaTaO3,0,Pnma,y,y,1423,AP,,{},"{""step1"": {""cool rate"": [{""value"": ""20"", ""unit"": ""C/h""}], ""cool time"": [], ""cool medium"": [], ""cool type"": [], ""end temperature"": [""RT""], ""remark"": []}}",4,,"Na2CO3, K2CO3, Ta2O5",,10.1016/j.jssc.2016.03.008,2016,,FALSE
Na-Ta-O,mp-4170,"[239693, 28616, 28610, 28611, 28619, 28615, 28618, 28614, 28608, 28612, 88378, 28613, 28607, 28617, 28609, 28606]",NaTaO3,0.014601898,Pm-3m,y,y,,,,{},{},,,,,10.1016/j.jssc.2016.03.008,2016,high temperature phase of mp-3858,FALSE
Na-Ta-O,mp-4675,"[239692, 88377, 280101, 23322]",NaTaO3,0.004618441,P4/mbm,y,y,,,,{},{},,,,,10.1016/j.jssc.2016.03.008,2016,high temperature phase of mp-3858,FALSE
Na-Tb-O,mp-28430,[64665],Na2TbO3,0.0901233,C2/c,y,y,1073,,O2,{},{},1,,"Na2O2, Tb4O7",,10.1016/j.jallcom.2005.08.100,2006,,FALSE
Na-Tb-O,mp-6964,[61683],NaTbO2,0,I4_1/amd,?,?,,,,{},{},,,,,10.1016/0022-1902(81)80623-9,1981,insufficient information: different lattice parameter and structure as ICSD 61683,FALSE
Na-Te-O,mp-28713,[66917],Na2Te2O5,0,C2/c,n,n,,,,{},{},,,"TeO2, Na2CO3",from melt,10.3891/acta.chem.scand.51-0118,1997,,FALSE
Na-Te-O,mp-20254,[391382],Na2Te2O7,0,Imma,y,y,1073,6,,{},"{""step1"": {""cool rate"": [], ""cool time"": [], ""cool medium"": [], ""cool type"": [""quench""], ""end temperature"": [""RT""], ""remark"": []}}",1,,"Na2O2, TeO2, NaClO3",,10.1016/0022-4596(81)90306-6,1981,,FALSE
Na-Te-O,mp-28904,[75338],Na2Te4O9,0,P-1,n,n,,,,{},{},,,"TeO2, Na2CO3",from melt,10.1021/cm00046a052,1994,,FALSE
Na-Te-O,mp-541619,[100693],Na2TeO3,0,P2_1/c,n,n,,,,{},{},,,"TeO2, Na2O",from melt,10.1515/znb-1974-1-211,1974,,TRUE
Na-Te-O,mp-27537,[1108],Na2TeO4,0.003303949,Pbcn,y,y,923,AP,,"{""step1"": {""grind method"": [""agate mortar""], ""wet/dry"": [], ""liquid"": []}}",{},1,,"TeO2, Na2CO3",,10.1021/acs.inorgchem.8b00993,2018,beta phase,FALSE
Na-Te-O,mp-560613,[1492],Na2TeO4,0,P2_1/c,y,y,,,,{},{},,,,,10.1021/acs.inorgchem.8b00993,2018,alpha phase; high temperature phase of mp-27537,FALSE
Na-Te-O,mp-15391,[202325],Na4TeO5,0,P-1,y,y,973,,Ar,{},{},1,y,"TeO3, Na2O",,10.1016/0022-5088(87)90176-7,1987,,TRUE
Na-Te-O,mp-1079529,[68405],NaTeO6,0.592126238,Fm-3m,?,?,,,,{},{},,,,,,,ICSD 68405 contain hydrogen,N/A
Na-Ti-O,mp-3488,"[250000, 187821, 15463]",Na2Ti3O7,0,P2_1/m,y,y,1023,AP,,"{""step1"": {""grind method"": [""ball milling""], ""wet/dry"": [], ""liquid"": []}}",{},1,,"TiO2, NaOH",,10.1039/C2TA01057G,2013,,FALSE
Na-Ti-O,mp-5449,"[182965, 186996, 163491, 23877]",Na2Ti6O13,0,C2/m,y,y,1573,AP,,{},{},2,,"Na2CO3, TiO2",,10.1107/S0365110X62000511,1962,,FALSE
Na-Ti-O,mp-650929,[62766],Na2Ti9O19,0.033397429,C2/m,n,n,,,,{},{},,,,hydrothermal,10.1016/0022-4596(79)90091-4,1979,,FALSE
Na-Ti-O,mp-1077081,[183666],Na2TiO3,0.126927572,Immm,y,?,,,,{},{},1,,,,10.1016/j.jpcs.2011.11.009,2012,"modelling of alpha Na2TiO3; other phase of gamma Na2TiO3, which can be synthesized via solid state reaction: 10.1016/j.ceramint.2017.10.152",FALSE
Na-Ti-O,mp-14726,[69621],Na4TiO4,0,P-1,?,?,1123,,Ar,{},{},1,,"Na2O, TiO2",,10.1039/DT9720002448,1972,"other refinement or phase of orthorhombic Na4TiO4, which can be synthesized via solid state synthesis",FALSE
Na-Ti-O,mp-28017,"[251702, 251700, 34441]",Na8Ti5O14,0,P-1,y,y,1123,,,{},{},2,,"TiO2, Na2CO3",,10.1021/cm5035358,2014,,FALSE
Na-Ti-O,mp-29356,[202906],NaTi2O4,0,Pnma,y,y,1473,,Ar,{},"{""step1"": {""cool rate"": [], ""cool time"": [], ""cool medium"": [], ""cool type"": [""slow cooling""], ""end temperature"": [""RT""], ""remark"": []}}",1,,"TiO, Ti2O3, Na2O",,10.1016/0022-4596(89)90268-5,1989,excess Ni2O,FALSE
Na-Ti-O,mp-28649,[69110],NaTi8O13,0.003148975,R-3,y,y,1673,,Ar,{},"{""step1"": {""cool rate"": [], ""cool time"": [], ""cool medium"": [], ""cool type"": [""slow cooling""], ""end temperature"": [""RT""], ""remark"": []}}",1,,"Na, TiO2, Ti2O3",,10.1016/0022-4596(91)90180-P,1991,excess Na,FALSE