system,mp_id,icsd_ids,composition,e_above_hull,Spacegroup Number,solid_state_synthesized_composition,solid_state_synthesized_structure,sss_highest_temperature(K),sss_pressure(GPa),sss_atmosphere,sss_mixing_condition,sss_cooling_condition,sss_heating_step,single_crystal,sss_precursor,other_synthesis_method,reference,reference_year,comment,google_translate
Cd-As-O,mp-7128,[280576],CdAs2O6,0,P-31m,y,y,953,,,{},{},1,,,,10.1107/S1600536801003865,2001,,FALSE
Cd-As-O,mp-1190591,[16444],CdAs4O16,0.628556871,P-1,?,?,,,,{},{},,,,,,,ICSD 16444 contain hydrogen,N/A
Cd-Bi-O,mp-541433,"[75404, 89453]",CdBi2O4,0.007025351,I4_1/amd,?,?,913,AP,,"{""step1"": {""grind method"": [""ball milling""], ""wet/dry"": [], ""liquid"": [""ethanol""]}}",{},1,,,,10.1016/S0167-2738(98)00444-5,1999,insufficent information: ambiguity on whether the description was to form CdBi2O4 pellet from CdBi2O4 powder or the synthesis of CdBi2O4 ,FALSE
Cd-Fe-O,mp-21333,[619857],CdFe2O4,0,Fd-3m,y,y,1573,AP,,{},{},1,,,,10.1063/1.1746464,1947,,FALSE
Cd-Ga-O,mp-3443,"[159739, 619869]",CdGa2O4,0,Fd-3m,y,y,1223,,CdO vapor,{},{},1,,"CdO, Ga2O3",,10.1039/F19858101255,1985,,FALSE
Cd-Ge-O,mp-1193812,[4210],Cd2Ge3O9,0.154401764,P-1,?,?,,,,{},{},,,,,,,ICSD 4210 contain hydrogen,N/A
Cd-Ge-O,mp-29213,[100080],Cd2Ge7O16,0,P-4b2,y,y,1273,AP,,{},{},1,,"GeO2, CdCO3",,10.1007/BF00901999,1977,,TRUE
Cd-Ge-O,mp-3917,"[20224, 20873, 30859, 9369]",Cd2GeO4,0,Pnma,y,y,1073,0,vacuum,{},{},1,,"GeO2, CdO",,10.1016/0025-5408(72)90223-1,1979,,FALSE
Cd-Ge-O,mp-1189546,[20066],Cd3GeO6,0.197194259,Pmn2_1,?,?,,,,{},{},,,,,,,ICSD 20066 contain hydrogen,N/A
Cd-Ge-O,mp-7762,[23039],CdGe2O5,0.012606907,P-1,?,?,,,,{},{},,,,,"Kristallografiya 21, 303 (1976)",1976,translation issue: russian,FALSE
Cd-Ge-O,mp-13003,[158753],CdGeO3,0.118074569,Pnma,y,y,,,,{},{},,,,,10.1007/BF00223311,1989,high pressure phase of mp-2951,FALSE
Cd-Ge-O,mp-2951,"[9375, 20225, 77134]",CdGeO3,0.001214728,C2/c,y,y,1313,AP,,{},"{""step1"": {""cool rate"": [], ""cool time"": [], ""cool medium"": [], ""cool type"": [""quench""], ""end temperature"": [""RT""], ""remark"": []}}",1,,"CdO, GeO2",,10.1007/BF00223311,1989,,FALSE
Cd-Ge-O,mp-8275,[30971],CdGeO3,0.022089433,R-3,y,y,,,,{},{},,,,,10.1007/BF00223311,1989,high pressure phase of mp-2951,FALSE
Cd-Ge-O,mp-7588,"[17016, 23531]",CdGeO3,0.041823804,I4_1/a,y,y,,,,{},{},,,,,10.1007/BF00223311,1989,high pressure phase of mp-2951,FALSE
Cd-Hg-O,mp-9146,[74848],CdHgO2,0,C2/m,y,y,893,0.42,O2,{},{},1,,"CdO, HgO",,10.1016/0925-8388(95)01675-9,1995,special: pressure lowered during reaction to 0.36 Gpa,FALSE
Cd-In-O,mp-19803,"[159740, 4118]",CdIn2O4,0,Fd-3m,y,y,1073,AP,,{},"{""step1"": {""cool rate"": [], ""cool time"": [], ""cool medium"": [""air""], ""cool type"": [""quench""], ""end temperature"": [""RT""], ""remark"": []}}",1,,"In2O3, CdO",,10.1107/S0365110X59002924,1959,,FALSE
Cd-Mo-O,mp-19039,"[30371, 84455]",CdMoO4,0,I4_1/a,y,y,1023,AP,,{},{},1,,"CdCO3, MoO3",,10.1016/j.materresbull.2019.04.035,2019,,FALSE
Cd-Os-O,mp-5950,"[155766, 155762, 155768, 155763, 155765, 155773, 155767, 155772, 155761, 155769, 155771, 155770, 155764]",Cd2Os2O7,0,Fd-3m,y,y,1073,0,vacuum,{},{},1,,"CdO, Os, OsO4",,10.1039/b102335g,2001,,FALSE
Cd-Pb-O,mp-1201044,[15863],CdPbO6,0.469354579,Pn-3,?,?,,,,{},{},,,,,,,ICSD 15863 contain hydrogen,N/A
Cd-Pd-O,mp-13675,[16539],CdPd3O4,0.003586012,Pm-3n,y,y,1093,AP,,{},{},1,,"Pd, CdO",,10.1021/ba-1971-0098.ch003,1971,,FALSE
Cd-Pt-O,mp-8212,[35407],CdPt3O6,0,Cmmm,y,y,853,AP,O2,{},{},1,,"CdCO3, (NH4)2PtCl6",,10.1021/ic50136a026,1974,inhomogeneous,FALSE
Cd-Re-O,mp-16783,[28445],Cd2Re2O7,0.042700096,Fd-3m,y,y,1273,0,vacuum,{},{},2,,"CdO, ReO3, Re",,10.1088/0953-8984/13/33/105,2001,,FALSE
Cd-Rh-O,mp-14100,"[28954, 262941]",CdRh2O4,0,Fd-3m,y,y,1173,AP,,{},{},1,,"CdO, Rh2O3",,10.1021/ic300628m,2012,,FALSE
Cd-Ru-O,mp-505552,[86773],Cd2Ru2O7,0,Fd-3m,y,y,973,0.3,Ar,{},{},1,,"CdO, RuO2, KClO3, H2O",,10.1016/S0025-5408(98)00082-8,1998,water as mineralizer,FALSE
Cd-Sb-O,mp-16281,[77064],Cd2Sb2O7,0.009220504,Imma,y,?,,,,{},{},,,,,,,might be old refinement of mp-1191189,N/A
Cd-Sb-O,mp-1191189,[165168],Cd2Sb2O7,0,Fd-3m,y,y,1173,AP,,"{""step1"": {""grind method"": [""agate mortar""], ""wet/dry"": [], ""liquid"": [""acetone""]}}",{},1,,"CdO, Sb2O3",,10.1016/j.jssc.2013.11.007,2014,,FALSE
Cd-Sb-O,mp-8922,"[181929, 71028]",CdSb2O6,0,P-31m,y,y,1270,AP,,{},{},4,,"Sb2O3, CdO",,10.1021/cm049249w,2004,,FALSE
Cd-Se-O,mp-542117,[280951],Cd3Se3O10,0,P2_1,n,n,,,,{},{},,,,hydrothermal,10.1107/S160053680202161X,2002,,FALSE
Cd-Se-O,mp-1203548,[75231],Cd3Se4O12,0.124664184,P2_1/c,?,?,,,,{},{},,,,,,,,N/A
Cd-Se-O,mp-9178,[75230],CdSe2O5,0,C2/c,n,n,,,,{},{},,,,precipiration,10.1107/S010827019301128X,1994,,FALSE
Cd-Se-O,mp-1201724,[66970],CdSe2O9,0.247588077,P2_1/c,?,?,,,,{},{},,,,,,,,N/A
Cd-Se-O,mp-559203,[75274],CdSeO3,0,P2_1/c,n,n,,,,{},{},,,,,10.1107/S0108270193011278,1994,other phase of mp-9186,FALSE
Cd-Se-O,mp-9186,[75273],CdSeO3,0.009959862,Pnma,n,n,,,,{},{},,,,precipiration,10.1107/S0108270193011278,1994,,FALSE
Cd-Sn-O,mp-5966,"[9010, 69296, 69297]",Cd2SnO4,0,Pbam,y,y,1323,AP,,"{""step1"": {""grind method"": [""agate mortar""], ""wet/dry"": [], ""liquid"": []}}",{},1,,"CdO, SnO2",,10.1016/j.jallcom.2010.05.126,2010,,FALSE
Cd-Sn-O,mp-1104726,[187040],Cd2SnO4,0.097708031,Fd-3m,y,?,,,,{},{},,,,,10.1016/j.commatsci.2011.07.046,2012,modelling of cubic SnCd2O4,FALSE
Cd-Sn-O,mp-754329,"[181930, 180400, 180399]",CdSnO3,0,R-3,?,?,,,,{},{},,,"CdSO4·8H2O, SnCl4·5H2O, NaOH, NaCl",,10.1016/j.aca.2004.06.055,2004,"beta phase; nano; ICSD 180400, 180399 not found; insufficent information: function of NaOH is unknown; NaCl to prevent agglomeration",FALSE
Cd-Sn-O,mp-849371,"[180401, 165167, 180402]",CdSnO3,0.030340981,Pnma,?,?,,,,{},{},,,,,10.1016/0167-577X(95)00007-0,1995,"alpha phase; high temperature phase of mp-754329; ICSD 180401, 180402 not found",FALSE
Cd-Tc-O,mp-1192130,[180008],Cd2Tc2O7,0,Fd-3m,y,y,1073,0,vacuum,{},"{""step1"": {""cool rate"": [], ""cool time"": [], ""cool medium"": [], ""cool type"": [""furnace cool""], ""end temperature"": [""RT""], ""remark"": []}}",1,,"Tc2O7, Cd",,10.1039/C0JM02470H,2010,,FALSE
Cd-Tc-O,mp-1189706,[180009],CdTcO3,0.115910437,Pnma,y,y,1123,,Ar,{},{},1,,"CdO, TcO2",,10.1039/C0JM02470H,2010,,FALSE
Cd-Te-O,mp-30940,[413057],Cd2Te2O7,0,P-1,?,?,,,,{},{},,,"CdO, TeO2",,10.1016/j.solidstatesciences.2003.11.003,2004,insufficient information: uncertain phase percentage,FALSE
Cd-Te-O,mp-30941,[413058],Cd2Te3O9,0.004771341,P2_1/c,n,n,,,,{},{},,,"CdO, TeO2, TeO3",chemical transport reaction,10.1016/j.solidstatesciences.2003.11.003,2004,,FALSE
Cd-Te-O,mp-14243,[35084],Cd3TeO6,0,P2_1/c,y,y,1350,AP,,{},{},2,y,"CdO, TeO2, TeO3",,10.1107/S0567740882009005,1982,from abstract,FALSE
Cd-Te-O,mp-28290,[60067],CdTeO3,0,P2_1/c,?,?,,,,{},{},,,"CdO, TeO2",,10.1107/S0108270185006941,1985,preliminary result suggetss the possibility of solid state synthesizing CdTeO3,FALSE
Cd-W-O,mp-19387,"[252029, 67912, 67915, 28289, 166032, 248753, 67913, 186159, 67914, 200806, 84454, 186160, 87937, 67911, 82850]",CdWO4,0,P2/c,y,y,1273,AP,,{},{},2,,"ZnO, CdCO3",,10.3891/acta.chem.scand.53-1103,1999,,FALSE
Ce-Al-O,mp-3408,"[245270, 245563, 245269, 245268, 245267, 245271]",CeAlO3,0.007475457,R-3c,y,y,,,,{},{},,,,,10.1016/j.jssc.2006.05.002,2006,high temperature phase of mp-4096,FALSE
Ce-Al-O,mp-5323,"[245273, 72558, 166283, 245565, 245272, 245274, 245564]",CeAlO3,0.015469682,Pm-3m,y,y,,,,{},{},,,,,10.1016/j.jssc.2006.05.002,2006,high temperature phase of mp-4096,FALSE
Ce-Al-O,mp-19843,"[245562, 245266]",CeAlO3,0.001351553,Imma,y,y,,,,{},{},,,,,10.1016/j.jssc.2006.05.002,2006,high temperature phase of mp-4096,FALSE
Ce-Al-O,mp-4096,"[245561, 150277, 245554, 245265, 245264, 166284]",CeAlO3,0.032421429,I4/mcm,y,y,1773,,H2/N2,{},{},1,,"Al2O3, CeO2",,10.1016/j.jssc.2006.05.002,2006,,FALSE
Ce-As-O,mp-1195015,"[291399, 426720]",CeAsO3,0.077899641,P2_1/c,?,n,,,,{},{},,,"Ce, As2O3, CsCl",flux ,10.1016/j.solidstatesciences.2014.08.005,2014,other phase of mp-1078398,FALSE
Ce-As-O,mp-1078398,[291400],CeAsO3,0.150917449,P2_1/m,?,?,1473,11,,{},"{""step1"": {""cool rate"": [], ""cool time"": [], ""cool medium"": [""air""], ""cool type"": [], ""end temperature"": [""RT""], ""remark"": []}}",1,,"As2O3, CeO2",,10.1016/j.solidstatesciences.2014.08.005,2014,uncertain phase percentage,FALSE
Ce-As-O,mp-10772,[280982],CeAsO4,0.022215491,P2_1/c,?,?,1473,11,,{},"{""step1"": {""cool rate"": [], ""cool time"": [], ""cool medium"": [""air""], ""cool type"": [], ""end temperature"": [""RT""], ""remark"": []}}",1,,"As2O3, CeO2",,10.1016/j.solidstatesciences.2014.08.005,2014,uncertain phase percentage,FALSE
Ce-Bi-O,mp-23003,"[9099, 419606]",Ce2BiO2,0,I4/mmm,y,y,1770,0,vacuum,{},"{""step1"": {""cool rate"": [{""value"": ""50"", ""unit"": ""C/h""}], ""cool time"": [], ""cool medium"": [], ""cool type"": [], ""end temperature"": [""RT""], ""remark"": []}}",2,,"Ce2O3, Bi, CeBi",,10.1016/j.jallcom.2008.09.181,2009,,FALSE
Ce-Cr-O,mp-1194060,[985],CeCr2O10,0.412900286,P2_1/m,?,?,,,,{},{},,,,,,,ICSD 985 contain hydrogen,N/A
Ce-Cr-O,mp-20530,[28931],CeCrO3,0.214286796,Pm-3m,y,y,1173,AP,,{},{},1,,"Cr2O3, Ce2O3",,10.1021/ja01633a031,1954,,FALSE
Ce-Ga-O,mp-22540,[76048],CeGaO3,0.871742584,Pm-3m,y,?,,,,{},{},,,,,"Atti della Accademia Nazionale dei Lincei, Classe di Scienze Fisiche, Matematiche e Naturali, Rendiconti 17, 48 (1954)",1954,might be old refinement of mp-1019598,FALSE
Ce-Ga-O,mp-1019598,[183679],CeGaO3,0.12483253,Pnma,y,y,,,,{},{},,,,,10.1016/j.physb.2011.12.113,2012,"modelling of orthorhombic CeGaO3, which can be synthesized via solid state synthesis: 10.1111/j.1151-2916.2002.tb00533.x",FALSE
Ce-Ga-O,mp-33365,[55629],CeGaO3,0.225281268,Pm-3m,y,?,,,,{},{},,,,,10.1111/j.1151-2916.2002.tb00533.x,2004,other refinement of mp-1019598,FALSE
Ce-Ge-O,mp-697672,[83342],Ce2Ge3O9,0.049620875,P-1,n,n,,,,{},{},,,,hydrothermal,10.1524/zkri.1996.211.1.4,1991,,TRUE
Ce-Mo-O,mp-559828,[35118],Ce2Mo4O15,0.023554747,P-1,y,y,973,AP,,{},{},1,,"MoO3, CeO2",,10.1016/0022-4596(82)90360-7,1982,,FALSE
Ce-Mo-O,mp-639904,[419443],Ce3MoO7,0.129895121,P2_12_12_1,y,y,1673,0,vacuum,{},"{""step1"": {""cool rate"": [{""value"": ""100"", ""unit"": ""C/h""}], ""cool time"": [], ""cool medium"": [], ""cool type"": [], ""end temperature"": [{""value"": ""1100"", ""unit"": ""C""}], ""remark"": []}, ""step2"": {""cool rate"": [], ""cool time"": [], ""cool medium"": [], ""cool type"": [""furnace cool""], ""end temperature"": [""RT""], ""remark"": []}}",1,,"CeO2, MoO3, Mo",,10.1016/j.jssc.2009.01.038,2009,,FALSE
Ce-Mo-O,mp-510058,[281369],CeMo5O8,0.479025564,P2_1/c,y,y,1973,0,vacuum,{},"{""step1"": {""cool rate"": [{""value"": ""50"", ""unit"": ""C/h""}], ""cool time"": [], ""cool medium"": [], ""cool type"": [], ""end temperature"": [{""value"": ""1100"", ""unit"": ""C""}], ""remark"": []}, ""step2"": {""cool rate"": [], ""cool time"": [], ""cool medium"": [], ""cool type"": [""furnace cool""], ""end temperature"": [""RT""], ""remark"": []}}",1,y,"CeO2, Mo, MoO3",,10.1107/S0108768103011194,2003,,FALSE
Ce-Nb-O,mp-557564,[414675],CeNbO4,0.002418274,I4_1/a,y,y,,,,{},{},,,,,10.1107/S0108270104003300,2004,high temperature phase of mp-7550,FALSE
Ce-Nb-O,mp-7550,[16369],CeNbO4,0,C2/c,y,y,1673,AP,,{},"{""step1"": {""cool rate"": [], ""cool time"": [], ""cool medium"": [""water""], ""cool type"": [""quench""], ""end temperature"": [""RT""], ""remark"": []}}",2,,"CeO2, Ta2O5",,10.1016/0022-4596(80)90489-2,1980,,FALSE
Ce-Pb-O,mp-510369,[240270],Ce5Pb3O,0,I4/mcm,n,n,,,,{},{},,,"Ce, Co, Pb",flux,10.1021/cm0352605,2004,,FALSE
Ce-Rh-O,mp-1200659,[423111],CeRh2O5,0.012359145,Pnma,n,n,,,,{},{},,,"CeO2, Rh2O3",flux,10.1016/j.jssc.2011.04.005,2011,various solid state reactions have been attempted but failed,FALSE
Ce-Sb-O,mp-20356,[9100],Ce2SbO2,0,I4/mmm,y,y,1073,,,{},{},1,,"Ce2O3, Ce, Sb",,10.1107/S0567740871003066,1971,,FALSE
Ce-Sb-O,mp-1197286,[414018],Ce9Sb5O5,0.023504832,P4/n,y,y,1770,,Ar,{},"{""step1"": {""cool rate"": [{""value"": ""50"", ""unit"": ""C/h""}], ""cool time"": [], ""cool medium"": [], ""cool type"": [], ""end temperature"": [""RT""], ""remark"": []}}",2,,"Ce, Sb, Sb2O3",,10.1002/zaac.200400228,2004,,TRUE
Ce-Sc-O,mp-777413,[195596],CeScO3,0.024659748,Pnma,n,n,,,,{},{},,,,"combustion, reduction",10.1021/acs.inorgchem.7b01042,2017,,FALSE
Ce-Se-O,mp-1198305,[424094],Ce10Se14O,0.012444446,I4_1/acd,n,n,,,,{},{},,,"Ce, SeO2, Se",flux,10.3390/cryst2031136,2012,,FALSE
Ce-Se-O,mp-638687,[416078],Ce2Se3O9,0.099461551,Pnma,n,n,,,,{},{},,,"Ce, CeO2, SeO2",flux,10.1002/zaac.200500513,2006,,FALSE
Ce-Se-O,mp-1205034,[65931],Ce2Se4O17,0.140125112,Cc,?,?,,,,{},{},,,,,,,ICSD 65931 contain hydrogen,N/A
Ce-Se-O,mp-552177,[419127],Ce4Se3O4,0.012400807,Amm2,y,y,1023,0,vacuum,{},"{""step1"": {""cool rate"": [{""value"": ""5"", ""unit"": ""C/h""}], ""cool time"": [], ""cool medium"": [], ""cool type"": [], ""end temperature"": [""RT""], ""remark"": []}}",1,,"Ce, Se, SeO2",,10.1021/ic800233c,2008,,FALSE
Ce-Se-O,mp-541090,[60778],CeSe2O6,0,P2_1/c,y,y,543,0,vacuum,{},{},1,,"SeO2, CeO2",,10.1107/S0108270186091795,1986,,TRUE
Ce-Se-O,mp-21838,[39292],CeSe2O8,0,Pbca,?,?,,,,{},{},,,,,"Soviet Physics, Crystallography 35, 640 (1990)",1990,translation issue: russian,FALSE
Ce-Ta-O,mp-505070,[66281],CeTa3O9,0.018563586,C2/m,y,n,,,,{},{},,,,chemical transport reaction,10.1002/zaac.19885650108,1988,"from abstract; other phase of orthorhombic CeTa3O9, which can be synthesized via solid state synthesis: 10.1016/S0022-3697(99)00227-9",FALSE
Ce-Ta-O,mp-22074,"[415427, 16368]",CeTaO4,0,P2_1/c,y,y,1773,AP,,{},"{""step1"": {""cool rate"": [], ""cool time"": [], ""cool medium"": [""water""], ""cool type"": [""quench""], ""end temperature"": [""RT""], ""remark"": []}}",2,,"CeO2, Ta2O5",,10.1016/0022-4596(80)90489-2,1980,,FALSE
Ce-Te-O,mp-31248,[413652],Ce2Te4O11,0.079662381,C2/c,n,n,,,,{},{},,,"TeO2, CsCl, Ce2O3",flux,10.1515/znb-2004-0802,2004,,TRUE
Ce-Te-O,mp-4873,"[89558, 9101]",Ce2TeO2,0,I4/mmm,n,n,,,,{},{},,,"CsCl, TeO2, Te",flux,10.1002/(SICI)1521-3749(199911)625:11<1833::AID-ZAAC1833>3.0.CO;2-8,1999,,TRUE
Ce-Te-O,mp-4599,"[94462, 69737]",CeTe2O6,0.011087027,P2_1/c,y,y,973,AP,,{},{},1,,"TeO2, CeO2",,10.1016/0022-5088(91)90008-R,1991,,FALSE
Ce-V-O,mp-18769,"[63521, 99834, 185832, 165721, 162748]",CeVO3,0.052956026,Pnma,y,y,1823,0,vacuum,{},"{""step1"": {""cool rate"": [{""value"": ""600"", ""unit"": ""C/h""}], ""cool time"": [], ""cool medium"": [], ""cool type"": [], ""end temperature"": [""RT""], ""remark"": []}}",1,,"CeO2, VO",,10.1016/S0925-8388(02)00209-8,2002,,FALSE
Ce-V-O,mp-22593,[28926],CeVO3,0.229860392,Pm-3m,y,?,,,,{},{},,,,,,,might be old refinement of mp-18769,N/A
Ce-V-O,mp-1191330,"[66034, 183205, 183203]",CeVO4,0.109153159,P2_1/c,y,y,,,,{},{},,,,,10.1515/znb-1990-0505,1990,high pressure phase of mp-19214,FALSE
Ce-V-O,mp-19214,"[15612, 183204, 202425, 247450, 66033, 78075, 183202, 157326]",CeVO4,0.055798554,I4_1/amd,y,y,1273,,,{},"{""step1"": {""cool rate"": [], ""cool time"": [], ""cool medium"": [], ""cool type"": [""quench""], ""end temperature"": [""RT""], ""remark"": []}}",2,,"CeO2, V2O5",,10.1515/znb-1990-0505,1990,,TRUE
Ce-W-O,mp-17686,[401920],Ce2W3O12,0.079050858,C2/c,n,n,,,,{},{},,,"WO3, CeO2",from melt,10.1515/znb-1995-1013,1995,,TRUE
Ce-Zr-O,mp-560329,"[154755, 168596, 168600, 168597, 168598, 168599, 168595]",Ce2Zr2O7,0,Fd-3m,y,y,1873,,"air,Ar/H2","{""step1"": {""grind method"": [""ball milling""], ""wet/dry"": [], ""liquid"": []}}",{},2,,"CeO2, ZrN",,10.1007/s00269-010-0356-5,2010,,FALSE
Ce-Zr-O,mp-1019589,[164739],Ce3Zr5O16,0.04546408,C222,?,?,,,,{},{},,,,,10.1021/jp9024156,2009,modelling of CexZr1-xO2,FALSE
Ce-Zr-O,mp-1019591,[164742],Ce3ZrO8,0.032531527,C2/c,?,?,,,,{},{},,,,,10.1021/jp9024156,2009,modelling of CexZr1-xO2,FALSE
Ce-Zr-O,mp-1019595,[164741],Ce5Zr3O16,0.039207474,C222,?,?,,,,{},{},,,,,10.1021/jp9024156,2009,modelling of CexZr1-xO2,FALSE
Ce-Zr-O,mp-1191683,[164743],Ce7ZrO16,0.021445614,P4/mmm,?,?,,,,{},{},,,,,10.1021/jp9024156,2009,modelling of CexZr1-xO2,FALSE
Ce-Zr-O,mp-1019600,[164738],CeZr3O8,0.044384255,C2/c,?,?,,,,{},{},,,,,10.1021/jp9024156,2009,modelling of CexZr1-xO2,FALSE
Ce-Zr-O,mp-1019601,[164737],CeZr7O16,0.044992173,P-4m2,?,?,,,,{},{},,,,,10.1021/jp9024156,2009,modelling of CexZr1-xO2,FALSE
Ce-Zr-O,mp-4843,"[420824, 90465, 90466]",CeZrO4,0.063025066,P2_13,y,n,,,,{},{},,,CeZrO4,,10.1016/S0925-8388(00)01168-3,2000,"other phase of t'-CeZrO4, which can be synthesized via solid state synthesis",FALSE
Ce-Zr-O,mp-1019596,[164740],CeZrO4,0.042696215,P4/nbm,y,y,,,,{},{},,,,,10.1021/jp9024156,2009,"modelling of t'-CeZrO4, which can be synthesized via solid state synthesis: 10.1016/S0925-8388(00)01168-3",FALSE
Co-Ag-O,mp-1078847,[180889],CoAgO2,0.649019554,P6_3/mmc,n,?,,,,{},{},,,,,10.1107/S0108767311006581,2011,other refinement of mp-19178,FALSE
Co-Ag-O,mp-1106049,[261608],CoAgO2,0.077335804,P6_3/mmc,n,n,,,,{},{},,,,,10.1021/ic2002354,2011,other phase of mp-19178,FALSE
Co-Ag-O,mp-19178,"[187261, 246157, 180888]",CoAgO2,0,P6_3/mmc,n,n,,,,{},{},,,,ion exchange,10.1016/j.jssc.2008.07.031,2008,,FALSE
Co-As-O,mp-705094,[419758],Co2As2O5,0.024648416,P-1,n,n,,,,{},{},,,,,10.1002/zaac.200800232,2008,unintended product; minority phase,FALSE
Co-As-O,mp-1204772,[261144],Co2As2O7,0.009097086,P-1,y,y,1173,AP,,{},"{""step1"": {""cool rate"": [], ""cool time"": [{""value"": ""3"", ""unit"": ""hour""}], ""cool medium"": [], ""cool type"": [], ""end temperature"": [""RT""], ""remark"": []}}",1,,"As2O5, Co(NO3)2",,10.1016/0022-4596(90)90109-B,1990,,FALSE
Co-As-O,mp-1196672,"[74294, 78353]",Co2As2O9,0.239344497,P2_1/c,?,?,,,,{},{},,,,,,,"ICSD 74294, 78353 contain hydrogen",N/A
Co-As-O,mp-1203275,"[100446, 4286]",Co2AsO5,0.049442156,Pnnm,?,?,,,,{},{},,,,,,,"ICSD 100446, 4286 contain hydrogen",N/A
Co-As-O,mp-21664,[59000],Co3As2O8,0.475943686,P2_1/c,n,n,,,,{},{},,,,,10.1002/zaac.19845171015,1984,other phase of mp-562111,FALSE
Co-As-O,mp-562111,[23547],Co3As2O8,0.049360394,P2_1/c,n,n,,,,{},{},,,hydrated Co3(AsO4)2,decomposition,10.1139/v70-145,1970,,FALSE
Co-As-O,mp-19292,[80350],CoAs2O6,0,P-31m,y,y,923,AP,,{},{},1,,"As2O5, CoO",,10.1006/jssc.1995.1361,1955,,FALSE
Co-As-O,mp-1201698,[32025],CoAsO5,0.319965672,P-1,?,?,,,,{},{},,,,,,,ICSD 32025 contain hydrogen,N/A
Co-Bi-O,mp-1188346,[247467],CoBiO3,0.092076715,Pnma,y,y,,,,{},{},,,,,10.1021/ja102987d,2010,high pressure phase of mp-545522,FALSE
Co-Bi-O,mp-545522,"[157833, 247466]",CoBiO3,0,P4mm,y,y,1473,6,,{},{},1,,"Bi2O3, Co3O4,  KClO3",,10.1021/ja102987d,2010,,FALSE
Co-Cu-O,mp-20334,[33996],CoCu2O3,0.071727935,Pmmn,y,y,1313,,O2,"{""step1"": {""grind method"": [""agate mortar""], ""wet/dry"": [], ""liquid"": []}}","{""step1"": {""cool rate"": [], ""cool time"": [], ""cool medium"": [], ""cool type"": [""quench""], ""end temperature"": [""RT""], ""remark"": []}}",1,,"Co3O4, CuO",,10.1016/j.jmmm.2011.06.054,2011,ICSD 33996 doi not working; off-stoichiometric,FALSE
Co-Cu-O,mp-504711,[27803],CoCuO2,0.217206389,R-3m,n,n,,,,{},{},,,"CuCl, LiCoO2",ion exchange,10.1016/j.jallcom.2009.09.124,2010,,FALSE
Co-Ge-O,mp-28961,[79717],Co10Ge3O16,0.067518845,R-3m,y,y,1333,AP,,"{""step1"": {""grind method"": [""agate mortar""], ""wet/dry"": [], ""liquid"": []}}",{},1,,"Co3O4, GeO2",,10.1134/S1063783407030201,2007,,FALSE
Co-Ge-O,mp-18758,"[29348, 21115]",Co2GeO4,0,Fd-3m,y,y,1673,AP,,{},"{""step1"": {""cool rate"": [], ""cool time"": [], ""cool medium"": [""water""], ""cool type"": [""quench""], ""end temperature"": [""RT""], ""remark"": []}}",2,,"CoO, GeO2",,10.1016/0022-1902(73)80531-7,1973,,FALSE
Co-Mo-O,mp-17824,"[10143, 248081]",Co2Mo3O8,0.504217671,P6_3mc,y,y,1250,0,vacuum,{},{},1,,"CoO, MoO2",,10.1016/S0925-8388(98)00684-7,1998,,FALSE
Co-Mo-O,mp-1105747,[419795],CoMo4O15,0.25972057,P-1,?,?,,,,{},{},,,,,,,ICSD 419795 contain hydrogen,N/A
Co-Mo-O,mp-19435,"[81061, 281235]",CoMoO4,0.114015779,P2/c,y,y,,,,{},{},,,,,10.1016/0304-8853(95)00516-1,1995,high pressure phase of mp-17289,FALSE