system,mp_id,icsd_ids,composition,e_above_hull,Spacegroup Number,solid_state_synthesized_composition,solid_state_synthesized_structure,sss_highest_temperature(K),sss_pressure(GPa),sss_atmosphere,sss_mixing_condition,sss_cooling_condition,sss_heating_step,single_crystal,sss_precursor,other_synthesis_method,reference,reference_year,comment,google_translate
Er-Mn-O,mp-19256,[202517],Er2Mn2O7,0,Fd-3m,y,y,,,,{},{},,,,,10.1103/PhysRevMaterials.1.064408,2017,"high temperature/pressure phase of monoclinic Er2Mn2O7, which can be synthesized via solid state synthesis: 10.1016/S1002-0721(12)60234-8",FALSE
Er-Mn-O,mp-19345,"[84355, 97048]",ErMn2O5,0,Pbam,y,y,1373,AP,,{},{},1,,"Er2O3, Mn3O4",,10.1063/1.2175866,2006,,FALSE
Er-Mn-O,mp-19319,"[183141, 159310, 162208, 159311, 159309]",ErMnO3,0.263866762,Pnma,y,y,,,,{},{},,,,,10.1016/j.matchemphys.2008.07.009,2008,high temperature/pressure phase of mp-19217,FALSE
Er-Mn-O,mp-19217,"[162201, 280583, 182639]",ErMnO3,0,P6_3cm,y,y,1573,AP,,{},{},1,,"Er2O3, Mn2O3",,10.1016/0040-6031(95)02371-8,1995,,FALSE
Er-Mo-O,mp-31122,[99572],Er2MoO6,0,C2/c,y,y,1423,AP,,{},{},1,,"Er2O3, MoO3",,10.1016/j.jssc.2004.03.046,2004,,FALSE
Er-Mo-O,mp-16391,[281035],Er4Mo4O11,0.16821805,Pbam,y,y,1673,,Ar,{},"{""step1"": {""cool rate"": [{""value"": ""100"", ""unit"": ""C/h""}], ""cool time"": [], ""cool medium"": [], ""cool type"": [], ""end temperature"": [{""value"": ""1100"", ""unit"": ""C""}], ""remark"": []}, ""step2"": {""cool rate"": [], ""cool time"": [], ""cool medium"": [], ""cool type"": [""furnace cool""], ""end temperature"": [""RT""], ""remark"": []}}",1,,"Er2O3, Mo, MoO3",,10.1021/ic011000i,2002,,FALSE
Er-Mo-O,mp-1105166,[196167],Er5Mo2O12,0.02211347,C2/m,n,n,,,,{},{},,,"CsCl, Eu2O3, MoO3, Zn, CsCl",flux,10.1021/acs.inorgchem.5b02132,2015,,FALSE
Er-Nb-O,mp-5370,"[109180, 109304]",ErNbO4,0,C2/c,y,y,1873,AP,,{},{},2,,"Er2O3, Nb2O5",,10.1016/j.jallcom.2003.09.120,2004,,FALSE
Er-Ni-O,mp-18983,"[191795, 92048]",ErNiO3,0,Pnma,y,y,,,,{},{},,,,,10.1103/PhysRevB.64.094102,2001,ICSD 191795 and 92048 refers to different structure; high temperature phase of mp-1189736,FALSE
Er-Ni-O,mp-1189736,[191791],ErNiO3,0.079410669,P2_1/c,y,y,,,,{},{},,,,,10.1103/PhysRevB.64.094102,2001,"the reference paper synthesized RNiO3 (R = Sm, Eu, Gd, Dy, Ho, Y) via high pressure solid state synthesis: 10.1021/ja984015x",FALSE
Er-Ru-O,mp-30902,[97533],Er2Ru2O7,0.037610301,Fd-3m,y,y,1470,AP,,"{""step1"": {""grind method"": [""agate mortar""], ""wet/dry"": [], ""liquid"": []}}",{},2,,"RuO2, Er2O3",,10.1016/S0022-4596(03)00384-0,2003,inhomogeneous,FALSE
Er-Se-O,mp-31352,[411749],Er2Se3O9,0,P-1,n,n,,,,{},{},,,,,10.1006/jssc.2002.9629,2002,,FALSE
Er-Se-O,mp-13975,[25810],Er2SeO2,0,P-3m1,n,n,,,,{},{},,,"H2Se, Er2O3, H, He",solid-gas reaction,10.1107/S0365110X60000339,1960,,FALSE
Er-Sn-O,mp-3688,"[82962, 84749]",Er2Sn2O7,0,Fd-3m,y,y,1643,AP,,{},{},1,,"Er2O3, SnO2",,10.1088/0953-8984/23/38/382201,2011,,FALSE
Er-Ta-O,mp-3444,"[20262, 155661, 415437]",ErTaO4,0,P2/c,y,y,1573,AP,,"{""step1"": {""grind method"": [""pestle and mortar""], ""wet/dry"": [], ""liquid"": []}}",{},1,,"Ta2O5, Er2O3",,10.1016/j.jlumin.2016.06.054,2016,,FALSE
Er-Ta-O,mp-5503,"[153365, 109189, 153364]",ErTaO4,0.004062987,C2/c,y,?,,,,{},{},,,,,,,might be old refinement of mp-3444,N/A
Er-Tc-O,mp-557806,[109081],Er2Tc2O7,0.117711642,Fd-3m,y,y,1503,0,vacuum,{},"{""step1"": {""cool rate"": [], ""cool time"": [], ""cool medium"": [""water""], ""cool type"": [""quench""], ""end temperature"": [""RT""], ""remark"": []}}",2,,"TcO2, Er2O3",,10.1016/0022-1902(64)80152-4,1964,inhomogeneous,FALSE
Er-Te-O,mp-581795,"[413933, 413661]",Er2Te4O11,0.000792637,C2/c,?,?,1073,0,vacuum,{},{},,,"Er2O3, TeO2",,10.1016/j.jallcom.2004.04.107,2004,inhomogeneous <50%,FALSE
Er-Te-O,mp-559304,[413666],Er2Te5O13,0,P-1,n,n,,,,{},{},,,"TeO2, Er2O3, CsCl",flux,10.1515/znb-2005-0704,2005,,TRUE
Er-Ti-O,mp-5889,"[252238, 150211, 191615, 24209, 164022, 24152]",Er2Ti2O7,0.012166221,Fd-3m,y,y,1973,,Ar,{},"{""step1"": {""cool rate"": [], ""cool time"": [], ""cool medium"": [""water""], ""cool type"": [""quench""], ""end temperature"": [""RT""], ""remark"": []}}",1,,"Er2O3, TiO2",,10.1016/j.jssc.2006.06.007,2006,,FALSE
Er-V-O,mp-557684,[160866],Er2V2O7,0.080820782,Fd-3m,y,y,1473,5.5,,{},"{""step1"": {""cool rate"": [{""value"": ""30"", ""unit"": ""C/s""}], ""cool time"": [], ""cool medium"": [], ""cool type"": [""quench""], ""end temperature"": [""RT""], ""remark"": []}}",1,,"Er2O3, V2O3",,10.1021/cg800010g,2008,,FALSE
Er-V-O,mp-19205,"[185838, 40393, 161781]",ErVO3,0.077138413,Pnma,y,y,1673,0,vacuum,{},"{""step1"": {""cool rate"": [], ""cool time"": [], ""cool medium"": [], ""cool type"": [""slow cooling""], ""end temperature"": [""RT""], ""remark"": []}}",1,,"Er2O3, V2O3",,10.1016/0025-5408(76)90187-2,1976,,FALSE
Er-V-O,mp-18960,"[167091, 167092, 16300, 40122, 84235, 15671, 78080]",ErVO4,0,I4_1/amd,y,y,1250,0,vacuum,{},{},1,,"Er2O3, V2O5",,10.1107/S0108270189014162,1990,,FALSE
Er-V-O,mp-18880,[69118],ErVO4,0.035842986,I4_1/a,y,y,,,,{},{},,,,,10.1107/S0108270189014162,1990,high temperature/pressure phase of mp-18960,FALSE
Er-W-O,mp-554807,[35238],Er10W2O21,0,Pbcn,y,y,1953,,,"{""step1"": {""grind method"": [""vibratory mixer""], ""wet/dry"": [], ""liquid"": []}}",{},1,,"Er2O3, WO3",,10.1051/jphyscol:1977715,1977,,FALSE
Er-W-O,mp-17426,[62885],Er2WO6,0.007799386,P2_12_12_1,y,?,,,,{},{},,,,,"Kristallografiya 32, 363 (1987)",1987,translation issue: russian,FALSE
Er-W-O,mp-17201,[62884],Er2WO6,0,P2/c,y,y,1473,AP,,"{""step1"": {""grind method"": [""pestle and mortar""], ""wet/dry"": [], ""liquid"": []}}","{""step1"": {""cool rate"": [{""value"": ""300"", ""unit"": ""C/h""}], ""cool time"": [], ""cool medium"": [], ""cool type"": [], ""end temperature"": [""RT""], ""remark"": []}}",1,,"Er2O3, WO3",,10.1039/D0DT03081C,2021,,FALSE
Er-W-O,mp-556249,[20938],Er2WO6,0.001569922,Pbca,y,?,,,,{},{},,,,,"Kristallografiya 29, 692 (1984)",1984,translation issue: russian,FALSE
Eu-Al-O,mp-21757,[245326],Eu3Al5O12,0,Ia-3d,n,n,,,,{},{},,,"Eu2O3, Al(NO3)3·9H2O, HNO3",sol-gel,10.1002/zaac.200700027,2007,,FALSE
Eu-Al-O,mp-1019729,[428736],Eu3AlO5,0,I4/mcm,n,n,,,,{},{},,,"Eu, EuF3, alumosilicate glass flakes, CsBr",flux,https://www.researchgate.net/profile/Olaf_Reckeweg/publication/301295171_Synthesis_and_Structural_Characterization_of_the_EuropiumIIIII_Oxide_Ortho-Oxoaluminate_Eu3OAlO4/links/571b462c08ae408367bd60b1/Synthesis-and-Structural-Characterization-of-the-EuropiumII-III-Oxide-Ortho-Oxoaluminate-Eu3OAlO4.pdf,2015,,FALSE
Eu-Al-O,mp-582606,[16085],Eu4Al2O9,0,P2_1/c,n,n,,,,{},{},,,"Eu2O3, Al2O3",,10.1021/ic50076a024,1969,,FALSE
Eu-Al-O,mp-1019732,[237364],EuAl2O4,0,P2_1,y,y,1373,0,vacuum,{},{},1,,"Eu2O3, AlN, Al2O3",,10.1021/ic4013334,2013,,FALSE
Eu-Al-O,mp-21455,[109353],EuAlO3,0.042188971,Pnma,?,?,1673,,Ar/H2,{},{},,,"Eu2O3, Al2O3",,10.1103/PhysRevB.96.184419,2017,uncertain phase percentage,FALSE
Eu-As-O,mp-1077953,[1222],Eu4As2O,0.000196905,I4/mmm,n,n,,,,{},{},,,,from melt,10.1107/S0567740877010383,1977,,FALSE
Eu-As-O,mp-13576,[409995],EuAsO4,0,I4_1/amd,y,y,823,0,vacuum,{},{},1,,"Eu2O3, As2O5",,10.1524/ncrs.2009.0076,2009,,FALSE
Eu-Au-O,mp-21389,[411503],Eu3AuO6,0,P-1,y,y,873,0.43,,{},{},1,,"Au2O3·xH2O, Eu2O3, KOH",,10.1002/1521-3749(200103)627:3<439::AID-ZAAC439>3.0.CO;2-R,2000,,TRUE
Eu-Au-O,mp-21787,[92489],Eu4Au2O9,0.000280676,Pbcn,y,y,873,0.415,,{},{},1,,"Au2O3·xH2O, Eu2O3, KOH",,10.1002/1521-3749(200010)626:10<2178::AID-ZAAC2178>3.0.CO;2-%23,2000,ICSD 92489 doi not working; KOH as mineralizer,TRUE
Eu-Bi-O,mp-1078184,[402954],Eu4Bi2O,0,I4/mmm,?,?,,,,{},{},,,"Bi, Sr, Bi2O",from melt,10.1524/ncrs.2011.0195,2011,,FALSE
Eu-Cr-O,mp-1189762,"[251086, 251085]",EuCrO3,0,Pnma,y,y,1723,AP,,{},{},3,,"Eu2O3, Cr2O3",,10.1088/2053-1591/aaed88,2018,,FALSE
Eu-Cr-O,mp-22586,"[26981, 51696]",EuCrO4,0,I4_1/amd,y,y,873,,O2,{},{},3,,"Cr(NO3)3·9H2O, R(NO3)3·6H2O",,10.1016/0925-8388(93)90878-Q,1993,,FALSE
Eu-Cu-O,mp-22306,"[72244, 71183]",Eu2CuO4,0,I4/mmm,y,y,1348,AP,,{},{},2,,"Eu2O3, CuO",,10.1016/0921-4534(92)90310-9,1992,,FALSE
Eu-Cu-O,mp-13696,[18106],EuCuO2,0,R-3m,y,y,1173,,Ar,{},{},1,,"CuO, Eu2O3",,10.1524/zkri.1969.129.1-4.259,1969,,TRUE
Eu-Fe-O,mp-555758,[9232],Eu3Fe5O12,0,Ia-3d,y,y,1573,AP,,"{""step1"": {""grind method"": [""ball milling""], ""wet/dry"": [], ""liquid"": []}}",{},7,,"Eu2O3, Fe2O3",,10.1063/1.367854,1998,,FALSE
Eu-Fe-O,mp-1189159,[421429],Eu3FeO6,0.047092537,Cmc2_1,n,n,,,,{},{},,,"KOH, Fe2O3, Eu2O3, Nb2O3",flux,10.1016/j.solidstatesciences.2010.03.010,2010,,FALSE
Eu-Fe-O,mp-504703,"[27277, 189728]",EuFeO3,0.025042623,Pnma,y,y,1473,AP,,{},{},1,,"Eu2O3, Fe2O3",,10.1023/A:1012650100766,1998,,FALSE
Eu-Ga-O,mp-1184814,"[420732, 99492]",Eu3GaO6,0.02014255,Cmc2_1,y,y,1673,AP,,{},"{""step1"": {""cool rate"": [], ""cool time"": [], ""cool medium"": [""air""], ""cool type"": [""quench""], ""end temperature"": [""RT""], ""remark"": []}}",3,,"Eu2O3, Ga2O3",,10.1016/j.jssc.2003.12.024,2004,,FALSE
Eu-Ge-O,mp-22828,[20694],Eu2Ge2O7 ,0.687226008,P4_12_12,y,y,,,,{},{},,,,,10.1016/0022-5088(87)90215-3,1987,"other phase of P1 Eu2Ge2O7, which can be synthesized via solid state synthesis: 10.1134/S0020168518020048",FALSE
Eu-Ge-O,mp-648448,[8218],Eu2GeO5,0,P2_1/c,n,n,,,,{},{},,,"Eu2O3, GeO2",from melt,10.1107/S0567740879008797,1979,,FALSE
Eu-Hf-O,mp-1191195,"[173953, 236212]",Eu2Hf2O7,0,Fd-3m,y,y,1700,AP,,{},{},1,,"Eu2O3, HfO",,10.1016/S0925-8388(97)00430-1,1998,,FALSE
Eu-In-O,mp-1069296,[415804],Eu3InO,0,Pm-3m,n,n,,,,{},{},,,"Eu, Sn, SnO2",from melt,10.1002/zaac.200500399,2006,,FALSE
Eu-Ir-O,mp-641683,"[239645, 173948, 156437]",Eu2Ir2O7,0,Fd-3m,y,y,1473,0,vacuum,{},{},2,,"IrO2, Eu2O3",,10.1103/PhysRevB.90.235110,2014,,FALSE
Eu-Ir-O,mp-17981,[86476],Eu3IrO7,0,Cmcm,y,y,1373,AP,,{},{},3,,"Eu2O3, IrO2",,10.1016/0025-5408(91)90139-D,1991,excess Eu2O3 to prevent formation of pyrochlore,FALSE
Eu-Lu-O,mp-984697,[246728],EuLu2O4,0.678419692,Pnma,y,y,1373,0,vacuum,{},{},1,,"EuO, Lu2O3",,10.1016/j.jssc.2009.04.001,2009,,FALSE
Eu-Mn-O,mp-542392,"[97045, 84672]",EuMn2O5,0,Pbam,y,y,1103,AP,,{},"{""step1"": {""cool rate"": [], ""cool time"": [], ""cool medium"": [], ""cool type"": [""furnace cool""], ""end temperature"": [""RT""], ""remark"": []}}",1,,"Eu2O3, Mn2O3",,10.1134/S003602441203034X,2012,,FALSE
Eu-Mn-O,mp-20614,"[95492, 169489, 157392]",EuMnO3,0,Pnma,y,y,1473,AP,,"{""step1"": {""grind method"": [""agate mortar""], ""wet/dry"": [], ""liquid"": []}}","{""step1"": {""cool rate"": [], ""cool time"": [], ""cool medium"": [], ""cool type"": [""furnace cool""], ""end temperature"": [""RT""], ""remark"": []}}",2,,"Eu2O3, MnCO3",,10.1039/C6RA25951K,2017,,FALSE
Eu-Mo-O,mp-1191878,[173946],Eu2Mo2O7,0,Fd-3m,y,y,1623,AP,,{},{},1,,"Eu2O3, MoO2",,10.1016/0025-5408(80)90094-X,1980,,FALSE
Eu-Mo-O,mp-542905,"[194504, 420098, 182343, 153371]",Eu2Mo3O12,0.454031353,C2/c,y,y,1073,AP,,{},{},1,,"Eu2O3, MoO3",,10.1016/j.ssc.2011.08.009,2011,alpha phase,FALSE
Eu-Mo-O,mp-1194800,[251704],Eu2Mo3O12,0.379894467,Pba2,y,y,,,,{},{},,,,,10.1021/cm503720s,2014,beta phase; high temperature phase of mp-542905,FALSE
Eu-Mo-O,mp-704384,[281156],Eu2Mo5O18,0.379231936,Pbcn,n,n,,,,{},{},,,[Eu2(H2O)12Mo8O27]·6H2O,decomposition,10.1021/ic025697z,2002,,FALSE
Eu-Mo-O,mp-554530,[281031],Eu4Mo4O11,1.075072998,Pbam,y,y,1673,,,{},"{""step1"": {""cool rate"": [{""value"": ""100"", ""unit"": ""C/h""}], ""cool time"": [], ""cool medium"": [], ""cool type"": [], ""end temperature"": [{""value"": ""1100"", ""unit"": ""C""}], ""remark"": []}, ""step2"": {""cool rate"": [], ""cool time"": [], ""cool medium"": [], ""cool type"": [""furnace cool""], ""end temperature"": [""RT""], ""remark"": []}}",1,,"Mo, Eu2O3, MoO3",,10.1021/ic011000i,2002,,FALSE
Eu-Mo-O,mp-1105347,[196163],Eu5Mo2O12,0.068248787,C2/m,n,n,,,,{},{},,,"MoO3, Eu2O3, CsCl, Mo",flux,10.1021/acs.inorgchem.5b02132,2015,,FALSE
Eu-Mo-O,mp-553893,[411961],Eu6Mo10O39,0.468471987,C2/c,n,n,1073,AP,,{},{},,,Eu2(H2O)12Mo8O27,from melt,10.1006/jssc.2001.9284,2001,,FALSE
Eu-Mo-O,mp-1095254,[429260],EuMoO4,0,I4_1/a,y,y,1923,,,{},"{""step1"": {""cool rate"": [{""value"": ""100"", ""unit"": ""C/h""}], ""cool time"": [], ""cool medium"": [], ""cool type"": [], ""end temperature"": [{""value"": ""1373"", ""unit"": ""K""}], ""remark"": []}, ""step2"": {""cool rate"": [], ""cool time"": [], ""cool medium"": [], ""cool type"": [""furnace cool""], ""end temperature"": [""RT""], ""remark"": []}}",1,,"Eu2O3, MoO3, Mo",,10.1063/1.3553850,2011,,FALSE
Eu-Nb-O,mp-510674,[246384],Eu3NbO7,0,C222_1,y,y,1773,AP,,"{""step1"": {""grind method"": [""agate mortar""], ""wet/dry"": [], ""liquid"": []}}",{},1,,"Pr6O11, Eu2O3",,10.1016/j.jssc.2008.12.012,2009,,FALSE
Eu-Nb-O,mp-1185383,[166561],Eu5Nb4O15,0,P-3m1,y,y,1473,0,vacuum,{},{},2,,"EuNbO4, Eu3NbO7, Nb",,"Comptes Rendus des Seances de l'Academie des Sciences, Serie C: Sciences Chimiques 279, 521 (1974)",1974,,TRUE
Eu-Nb-O,mp-1201130,[247276],EuNb2O6,0,P2_1/c,y,y,1473,0,vacuum,{},{},1,,"Eu2O3, Nb2O5, NbO2",,10.1002/zaac.200900591,2010,,FALSE
Eu-Nb-O,mp-21593,[79975],EuNb8O14,0.157120393,Pbam,n,n,,,,{},{},,,"EuB2O3, NbO, NbO2, EuO",flux,10.1016/0925-8388(95)01597-3,1995,,FALSE
Eu-Nb-O,mp-755572,"[252713, 252712]",EuNbO3,0.012309788,Pm-3m,y,y,,,,{},{},,,,,10.1016/j.jssc.2016.04.032,2016,high temperature phase of mp-1078341,FALSE
Eu-Nb-O,mp-1078341,"[252710, 252711]",EuNbO3,0,Imma,y,y,1473,0,vacuum,"{""step1"": {""grind method"": [""agate mortar""], ""wet/dry"": [], ""liquid"": [""acetone""]}}","{""step1"": {""cool rate"": [], ""cool time"": [], ""cool medium"": [], ""cool type"": [""slow cooling""], ""end temperature"": [""RT""], ""remark"": []}}",1,,"Eu3NbO7, Nb, NbO2",,10.1016/j.jssc.2016.04.032,2016,,FALSE
Eu-Nb-O,mp-12646,[109177],EuNbO4,0,C2/c,y,y,1473,AP,,{},"{""step1"": {""cool rate"": [], ""cool time"": [], ""cool medium"": [], ""cool type"": [""furnace cool""], ""end temperature"": [""RT""], ""remark"": []}}",1,,"Eu2O3, Nb2O5",,10.1016/S1002-0721(14)60141-1,2014,,FALSE
Eu-Ni-O,mp-20718,"[56611, 91047, 88039, 80400]",EuNiO3,0.179271364,Pnma,y,y,1173,2,,{},"{""step1"": {""cool rate"": [], ""cool time"": [], ""cool medium"": [], ""cool type"": [""quench""], ""end temperature"": [""RT""], ""remark"": []}}",1,,"Eu2O3, NiO, KClO4",,10.1103/PhysRevB.61.1756,2000,,FALSE
Eu-Os-O,mp-561983,[170874],Eu3OsO7,0,Cmcm,n,n,,,,{},{},,,"Eu2O3, NaOH, H2O, Os",hydrothermal,10.1021/ic0506106,2005,,FALSE
Eu-Pb-O,mp-756670,[173951],Eu2Pb2O7,0,Fd-3m,?,?,,,,{},{},,,,,10.1103/PhysRevB.18.2031,1978,insufficent information,FALSE
Eu-Pt-O,mp-1191889,[173952],Eu2Pt2O7,0,Fd-3m,?,?,,,,{},{},,,,,10.1103/PhysRevB.18.2031,1978,insufficent information,FALSE
Eu-Re-O,mp-20209,"[90388, 88686]",Eu2ReO5,0.031928677,P4/n,y,y,1450,,,{},{},1,,"Eu3ReO8, Eu2O3, Re",,10.1016/S0925-8388(00)00828-8,2000,,FALSE
Eu-Re-O,mp-581427,[245105],Eu3ReO7,0,Cmcm,y,y,1473,0,vacuum,"{""step1"": {""grind method"": [""agate mortar""], ""wet/dry"": [], ""liquid"": []}}",{},1,,"Eu2O3, ReO2, ReO3",,10.1016/j.jssc.2006.07.033,2006,,FALSE
Eu-Rh-O,mp-19801,"[172357, 172351]",EuRhO3,0,Pnma,y,y,1573,,O2,"{""step1"": {""grind method"": [""agate mortar""], ""wet/dry"": [], ""liquid"": []}}",{},2,,"Rh2O3, Eu2O3",,10.1016/S0925-8388(02)00969-6,2003,,FALSE
Eu-Ru-O,mp-637431,"[109306, 173947]",Eu2Ru2O7,0,Fd-3m,y,y,1423,0,vacuum,{},{},1,,"Eu2O3, RuO2",,10.1007/s10008-006-0106-2,2007,,FALSE
Eu-Ru-O,mp-22365,"[170275, 93668]",Eu3RuO7,0,Cmcm,y,y,1473,AP,,"{""step1"": {""grind method"": [""agate mortar""], ""wet/dry"": [], ""liquid"": []}}",{},1,,"Eu2O3, RuO2",,10.1006/jssc.2001.9099,2001,,FALSE
Eu-Sb-O,mp-505043,[67023],Eu3Sb5O12,0,I-43m,y,y,963,0,vacuum,{},"{""step1"": {""cool rate"": [], ""cool time"": [], ""cool medium"": [], ""cool type"": [""quench""], ""end temperature"": [""RT""], ""remark"": []}}",1,,"Sb2O3, Eu2O3",,10.1016/0022-3697(89)90033-4,1989,,FALSE
Eu-Sb-O,mp-1190831,[188505],Eu3SbO7,0,Cmcm,y,y,1773,AP,,"{""step1"": {""grind method"": [""pestle and mortar""], ""wet/dry"": [], ""liquid"": []}}",{},1,,"Sb2O5, Eu2O3",,10.1016/j.jssc.2013.05.001,2013,excess Sb2O5,FALSE
Eu-Sb-O,mp-1078192,[402953],Eu4Sb2O,0,I4/mmm,y,y,1150,,,{},{},1,,"Eu, Sb, Sb2O3",,10.1524/ncrs.1998.213.14.15,1998,,FALSE
Eu-Sb-O,mp-510637,"[194551, 245019]",EuSbO4,0,P2_1/c,y,y,,,,"{""step1"": {""grind method"": [""pestle and mortar""], ""wet/dry"": [], ""liquid"": []}}",{},,,"Eu2O3, Sb2O5",,10.1021/cm502504b,2014,,FALSE
Eu-Sc-O,mp-22487,"[4128, 99542]",EuScO3,0.825965773,Pnma,y,y,1748,AP,,"{""step1"": {""grind method"": [""agate mortar""], ""wet/dry"": [], ""liquid"": [""acetone""]}}",{},2,,"Eu2O3, Sc2O3",,10.1016/j.jssc.2004.02.025,2004,inhomogenous,FALSE
Eu-Se-O,mp-1199825,[39471],EuSe2O8,0,Pbca,?,?,,,,{},{},,,,,,,ICSD 39471 contain hydrogen,N/A
Eu-Sn-O,mp-505306,"[84754, 173949, 165931]",Eu2Sn2O7,0.647881918,Fd-3m,y,y,1673,AP,,{},"{""step1"": {""cool rate"": [{""value"": ""600"", ""unit"": ""C/h""}], ""cool time"": [], ""cool medium"": [], ""cool type"": [], ""end temperature"": [""RT""], ""remark"": []}}",2,,"Eu2O3, SnO2",,10.1016/j.materresbull.2009.09.011,2010,,FALSE
Eu-Ta-O,mp-1191288,[400536],Eu2Ta2O7,0,Cmcm,y,y,1673,,H2,{},{},1,,"Eu2O3, Ta2O5",,10.1063/1.4902345,2014,,FALSE
Eu-Ta-O,mp-21406,[4148],Eu3TaO6,0.111790502,Fm-3m,y,y,1623,,vacuum;Ar,"{""step1"": {""grind method"": [""agate mortar""], ""wet/dry"": [], ""liquid"": []}}","{""step1"": {""cool rate"": [], ""cool time"": [], ""cool medium"": [], ""cool type"": [""quench""], ""end temperature"": [""RT""], ""remark"": []}}",1,,"Eu2O3, Ta, Ta2O5",,10.1016/0025-5408(75)90129-4,1975,,FALSE
Eu-Ta-O,mp-1192440,[166562],Eu5Ta4O15,0.020744055,P-3m1,y,y,1473,0,vacuum,{},{},2,,"EuTaO4, Eu3TaO7, Ta",,"Comptes Rendus des Seances de l'Academie des Sciences, Serie C: Sciences Chimiques 279, 521 (1974)",1974,,TRUE
Eu-Ta-O,mp-505434,[402209],EuTa2O6,0,Pnma,y,n,,,,{},{},,,,from melt,10.1524/zkri.1996.211.8.547,1996,"other phase of orthorhombic EuTa2O6, which can be synthesized via solid state synthesis: 10.1016/0022-4596(75)90081-X",FALSE
Eu-Ta-O,mp-20092,"[203123, 203122]",EuTa2O6,0.015584359,P4/mmm,y,?,,,,{},{},,,,,"Zhurnal Neorganicheskoj Khimii 34, 803 (1989)",1989,translation issue: russian,FALSE
Eu-Ta-O,mp-5957,"[415432, 155658]",EuTaO4,0.649099092,P2/c,y,?,,,,{},{},,,,,,,might be other phase or refinement of mp-4271,N/A
Eu-Ta-O,mp-4271,"[153361, 109185]",EuTaO4,0,C2/c,y,y,1923,AP,,"{""step1"": {""grind method"": [""ball milling""], ""wet/dry"": [], ""liquid"": [""ethanol""]}}","{""step1"": {""cool rate"": [], ""cool time"": [], ""cool medium"": [], ""cool type"": [""furnace cool""], ""end temperature"": [""RT""], ""remark"": []}}",2,,"Eu2O3, Ta2O5",,10.1016/j.scriptamat.2016.08.019,2017,,FALSE
Eu-Te-O,mp-31247,[413656],Eu2Te4O11,0,C2/c,y,y,1123,AP,,{},{},2,,"TeO2, Eu2O3",,chemistry-journal.org/detail-chemistry-journal/720/Thermal-Stability-of-Tb-Te4O-s-and-Eu-Te4O-s-/Pradeep-Samui-Ginishkumar-P-Hemlata-Khadilkar-S-K-Rakshit-and-S-C-Parida.html,2019,reference of the experimental section for the synthesis of Eu2Te4O11 contains 2 methods,FALSE
Eu-Te-O,mp-19897,[89562],Eu2TeO2,1.669920782,I4/mmm,y,y,1023,0,vacuum,{},{},1,,"Eu, TeO2",,10.1002/(SICI)1521-3749(199911)625:11<1833::AID-ZAAC1833>3.0.CO;2-8,1999,from abstract,FALSE
Eu-Ti-O,mp-505801,"[196405, 83596, 188551, 191620, 92767, 173945]",Eu2Ti2O7,0,Fd-3m,y,y,1473,AP,,{},{},2,,"Eu2O3, TiO2",,10.1016/j.jlumin.2015.09.033,2016,,FALSE
Eu-Ti-O,mp-1195915,[75062],Eu2TiO5,0,Pnma,y,y,1473,AP,,"{""step1"": {""grind method"": [""agate mortar""], ""wet/dry"": [], ""liquid"": []}}",{},2,,"Eu2O3, Ti sponge",,10.1016/j.tca.2008.05.008,2008,,FALSE
Eu-Ti-O,mp-22246,"[290422, 24669, 187111, 187115, 187110, 187105, 187101, 187107, 187205, 187104, 187109, 187117, 187204, 187113, 187103, 187106, 187108, 424907, 187114, 187102]",EuTiO3,0.009138212,Pm-3m,y,y,1673,,H2,{},{},1,,"Eu2O3, Ti2O3",,10.1103/PhysRevB.86.054112,2012,,FALSE
Eu-Ti-O,mp-1079111,"[187116, 187112]",EuTiO3,0,I4/mcm,y,y,,,,{},{},,,,,10.1103/PhysRevB.85.184107,2011,low temperature phase of mp-22246,FALSE