system,mp_id,icsd_ids,composition,e_above_hull,Spacegroup Number,solid_state_synthesized_composition,solid_state_synthesized_structure,sss_highest_temperature(K),sss_pressure(GPa),sss_atmosphere,sss_mixing_condition,sss_cooling_condition,sss_heating_step,single_crystal,sss_precursor,other_synthesis_method,reference,reference_year,comment,google_translate
Th-Te-O,mp-541285,[69738],ThTe2O6,0,P2_1/c,y,y,973,AP,,{},{},1,,"ThO2, TeO2",,10.1016/0022-5088(91)90008-R,1991,,FALSE
Th-Te-O,mp-3718,"[65950, 150471, 33587]",ThTeO,0,P4/nmm,y,y,1373,0,vacuum,{},{},1,,"ThO2, Th, Te",,10.1039/JR9540003760,1954,,FALSE
Th-Ti-O,mp-5274,"[14341, 89068]",ThTi2O6,0,C2/m,y,y,1723,AP,,"{""step1"": {""grind method"": [""agate mortar""], ""wet/dry"": [], ""liquid"": []}}",{},2,,"ThO2, TiO2",,10.1007/s002690050200,1999,,FALSE
Th-Ti-O,mp-4733,"[27017, 201890]",ThTi2O6,0.015893179,C2/c,y,n,,,,{},{},,,,from melt,10.1007/s002690050200,1999,other phase of mp-5274,FALSE
Th-V-O,mp-1196429,[73686],ThV2O7,0.019240889,Pna2_1,y,y,1023,AP,,{},{},1,,"V2O5, ThO2",,10.1016/0022-4596(92)90038-W,1992,alpha phase,TRUE
Th-V-O,mp-704544,[23433],ThV2O7,0.049966467,Pnnm,y,?,,,,{},{},,,,,,,might be other refinement of mp-1196429,N/A
Ti-Ag-O,mp-29160,[84970],TiAg2O3,0.036505234,C2/c,y,y,903,0.14,O2,{},{},1,,"K2TiOx(OH)6-2x, Ag",,10.1006/jssc.1997.7518,1997,water as accelerator,FALSE
Ti-Al-O,mp-15397,[202646],Ti7Al2O15,0.014873734,C2/m,n,n,,,,{},{},,,"Al0.166Ti3O5, TeCl4",chemical transport reaction,10.1016/0022-4596(88)90204-6,1988,,TRUE
Ti-Al-O,mp-4930,"[24133, 27681]",TiAl2O5,0.013215373,Cmcm,y,y,1635,0.0001,O2,"{""step1"": {""grind method"": [""ball milling""], ""wet/dry"": [], ""liquid"": [""water""]}}",{},1,,"Al2O3, TiO2",,10.1111/j.1151-2916.1987.tb04849.x,1987,inhomogeneous,FALSE
Ti-As-O,mp-557146,[73477],TiAs2O7,0.015950536,C2/c,n,n,,,,{},{},,,,,"European Journal of Solid State and Inorganic Chemistry 30, 761 (1993)",1993,beta phase; other phase of mp-17196,FALSE
Ti-As-O,mp-17196,[73476],TiAs2O7,0,P2_1/c,n,n,,,,{},{},,,,hydrothermal,"European Journal of Solid State and Inorganic Chemistry 30, 761 (1993)",1993,alpha phase; from abstract,FALSE
Ti-Bi-O,mp-23494,"[167355, 62302, 75389]",TiBi12O20,0.007386511,I23,y,y,1073,AP,,"{""step1"": {""grind method"": [""agate motar""], ""wet/dry"": [], ""liquid"": [""ethanol""]}}",{},1,,"Bi2O3, TiO2",,10.1021/ie0613220,2007,,FALSE
Ti-Bi-O,mp-559482,"[180394, 161100]",Ti2Bi2O7,0.044899768,Fd-3m,n,n,,,,{},{},,,,,10.1103/PhysRevB.82.155103,2010,modelling of pyrochlore Bi2Ti2O7; have not been synthesized via solid state synthesis: 10.1021/cm202154c,FALSE
Ti-Bi-O,mp-1200889,[180395],Ti2Bi2O7,0.011540351,Pna2_1,n,?,,,,{},{},,,,,10.1103/PhysRevB.82.155103,2010,modelling of pyrochlore Bi2Ti2O7,FALSE
Ti-Bi-O,mp-622198,[16488],Ti3Bi4O12,0.039635194,Aea2,y,?,,,,{},{},,,,,10.1107/S2052520619011843,2019,old refinement of mp-723064,FALSE
Ti-Bi-O,mp-23427,"[237194, 87808, 159929, 240210, 163544, 87809, 87810]",Ti3Bi4O12,0.005551498,Aea2,y,?,,,,{},{},,,,,10.1107/S2052520619011843,2019,old refinement of mp-723064,FALSE
Ti-Bi-O,mp-23335,"[195916, 195919, 195917, 195918, 87811, 24735]",Ti3Bi4O12,0.063957664,I4/mmm,y,y,,,,{},{},,,,,10.1021/cm991090d,1999,high temperature phase of mp-723064,FALSE
Ti-Bi-O,mp-723064,"[59796, 159930, 151452, 70000]",Ti3Bi4O12,0.001250712,Pc,y,y,1423,AP,,{},{},2,,"Bi2O3, TiO2",,10.1023/B:JMSL.0000004641.64177.01,2003,ICSD 159930 not found,FALSE
Ti-Bi-O,mp-558277,[151886],Ti3Bi4O12,0.00707447,Cc,y,?,,,,{},{},,,,,,,might be other refinement of mp-723064,N/A
Ti-Bi-O,mp-559154,"[79768, 20055]",Ti4Bi2O11,0.005417278,C2/c,y,y,1223,AP,,{},"{""step1"": {""cool rate"": [], ""cool time"": [], ""cool medium"": [""air""], ""cool type"": [""quench""], ""end temperature"": [""RT""], ""remark"": []}}",1,,"Bi2O3, TiO2",,10.1107/S0108768194004386,1995,alpha phase,FALSE
Ti-Bi-O,mp-28962,[79769],Ti4Bi2O11,0.00612573,C2/m,y,y,,,,{},{},,,,,10.1107/S0108768194004386,1995,beta phase; high temperature phase of mp-559154,FALSE
Ti-Bi-O,mp-1105121,[239415],Ti8BiO7,0.02441654,Cmmm,y,y,1173,,Ar,"{""step1"": {""grind method"": [""agate mortar""], ""wet/dry"": [], ""liquid"": []}}",{},1,,"Ti, Bi2O3",,10.1016/j.jallcom.2016.03.096,2016,,FALSE
Ti-Cd-O,mp-1079829,[153502],Ti2CdO6,0.171227856,P-31m,?,?,,,,{},{},,,,,,,ICSD 153502 contain hydrogen,N/A
Ti-Cd-O,mp-14550,"[62150, 262710]",TiCdO3,0.042543467,Pnma,y,y,,,,{},{},,,,,10.1016/j.jssc.2011.08.028,2011,"other phase of mp-13641, which can be synthesized at higher temperature",FALSE
Ti-Cd-O,mp-22345,[33667],TiCdO3,2.065493009,Pm-3m,y,?,,,,{},{},,,,,,,might be old refinement of mp-13641,N/A
Ti-Cd-O,mp-20940,[51698],TiCdO3,0.039568167,Pmc2_1,y,?,,,,{},{},,,,,10.1080/00150190108008721,2011,other refinement of mp-5052,FALSE
Ti-Cd-O,mp-13641,"[5310, 15989, 262708]",TiCdO3,0,R-3,y,y,1123,AP,,{},{},3,,"CdO, TiO2",,10.1016/j.jssc.2011.08.028,2011,,FALSE
Ti-Cd-O,mp-5052,"[16686, 62151, 262711]",TiCdO3,0.038749074,Pna2_1,y,y,,,,{},{},,,,,10.1016/j.jssc.2011.08.028,2011,low temperature phase of mp-13641,FALSE
Ti-Co-O,mp-504734,[29054],Ti3Co3O,0.606143264,Fd-3m,?,?,,,,{},{},,,,,10.1038/168558a0,1951,insufficient information: no synthesis information,FALSE
Ti-Co-O,mp-19424,"[16548, 38158, 48107]",TiCoO3,0.003154708,R-3,y,y,1423,AP,,"{""step1"": {""grind method"": [""planetary mill""], ""wet/dry"": [], ""liquid"": []}}",{},1,,"Co2O3, TiO2",,10.1016/j.compositesb.2019.107286,2019,,FALSE
Ti-Cr-O,mp-19369,[65219],Ti2CrO5,0.026813404,C2/c,y,y,1740,,H2/N2;Ar,"{""step1"": {""grind method"": [""agate mortar""], ""wet/dry"": [], ""liquid"": []}}",{},1,,"Cr2O3, Ti, TiO2",,10.1039/JM9920201249,1992,,FALSE
Ti-Cu-O,mp-21457,"[29056, 73018]",Ti3Cu3O,0,Fd-3m,n,n,,,,{},{},,,"Ti, TiO2, Cu",arc melting,10.1111/j.1151-2916.1993.tb06652.x,1993,,FALSE
Ti-Cu-O,mp-1103016,[185349],Ti3CuO8,0.080152943,P-4m2,?,?,,,,{},{},,,,,scopus.com/record/display.uri?eid=2-s2.0-85068267578&origin=inward,2009,modelling of Cu0.25Ti0.75O2,FALSE
Ti-Cu-O,mp-22432,"[15810, 73017]",Ti4Cu2O,0,Fd-3m,n,n,,,,{},{},,,"Ti, TiO2, Cu",arc melting,10.1111/j.1151-2916.1993.tb06652.x,1993,,FALSE
Ti-Fe-O,mp-1193065,[187588],TiFe2O4,0.166287036,Pmma,y,y,,,,{},{},,,,,10.2138/am.2013.4182,2013,"high pressure phase of cubic Fe2TiO4, which can be synthesized via solid state synthesis",FALSE
Ti-Fe-O,mp-28231,[37231],Ti2FeO5,0,Cmcm,y,y,1673,,H2/CO2,{},"{""step1"": {""cool rate"": [], ""cool time"": [], ""cool medium"": [], ""cool type"": [""quench""], ""end temperature"": [""RT""], ""remark"": []}}",1,,"Fe2O3, TiO2",,10.1016/0022-4596(73)90138-2,1973,,FALSE
Ti-Fe-O,mp-27884,[29053],Ti3Fe3O,1.786883724,Fd-3m,?,?,,,,{},{},,,,,10.1038/168558a0,1951,insufficient information: no synthesis information,FALSE
Ti-Fe-O,mp-505361,[100839],Ti4Fe2O,1.008322051,Fd-3m,n,n,,,,{},{},,,"Fe, Ti, Fe2O3",from melt,10.1016/0025-5408(81)90162-8,1981,,TRUE
Ti-Fe-O,mp-19255,[24416],TiFe2O5,0.637593064,C2/c,y,n,,,,{},{},,,"Fe2O3, TiO2, SrO",flux,10.1016/0022-4596(81)90359-5,1981,other phase of mp-559280,FALSE
Ti-Fe-O,mp-20117,"[24134, 36183]",TiFe2O5,0.042227657,Cmcm,y,?,,,,{},{},,,,,10.1002/pssa.2210840107,1984,other refinement of mp-559280,FALSE
Ti-Fe-O,mp-559280,[83741],TiFe2O5,0.48008246,C2/m,y,y,1523,AP,,"{""step1"": {""grind method"": [""agate mortar""], ""wet/dry"": [], ""liquid"": []}}",{},1,,"Fe2O3, TiO2",,10.1002/pssa.2210840107,1984,,FALSE
Ti-Fe-O,mp-19270,"[246515, 79278]",TiFeO3,0.031775025,R3c,y,y,,,,{},{},,,,,10.1007/BF00202258,1995,high temperature/pressure phase of mp-19417; ICSD 246515 not found,FALSE
Ti-Fe-O,mp-19074,[246516],TiFeO3,0.140171563,Cmcm,y,?,,,,{},{},,,,,10.1103/PhysRevB.72.024110,2005,modelling of high pressure phase TiFeO3,FALSE
Ti-Fe-O,mp-19417,"[153493, 153492, 24790, 29209, 187688, 247547, 153673, 30671, 30670, 30672, 153674, 43466, 30669, 9805, 30665, 30667, 30666, 30668, 153494, 153491, 30673, 30664, 67046]",TiFeO3,0.012041215,R-3,y,y,1273,2,,{},{},1,y,"Fe, Fe2O3, TiO2",,pubs.geoscienceworld.org/msa/ammin/article/69/1-2/176/41567,1984,,FALSE
Ti-Fe-O,mp-20073,[246514],TiFeO3,0.071826353,Pnma,y,y,,,,{},{},,,,,10.1103/PhysRevB.72.024110,2005,modelling of high pressure phase TiFeO3,FALSE
Ti-Ga-O,mp-553991,[155638],TiGa4O8,0.002615719,C2/m,y,y,2043,AP,,{},{},1,,"Ga2O3, TiO2",,10.1016/0022-4596(81)90029-3,1981,inhomogeneous,FALSE
Ti-Hg-O,mp-7607,[19005],TiHgO3,0.104624226,R-3c,y,y,1373,6.5,,{},{},1,,"HgO, TiO2",,10.1016/S0022-4596(73)80007-6,1973,,FALSE
Ti-In-O,mp-505177,[74316],TiIn2O5,0.011262553,Pnma,y,y,1523,AP,,{},{},1,,"In2O3, TiO2",,10.1016/0025-5408(93)90143-2,1993,,FALSE
Ti-Mn-O,mp-561097,[22383],Ti2MnO4,0.073176925,Fd-3m,y,y,1173,0,vacuum,{},{},1,,"Ti2O3, MnO",,10.1016/j.jmmm.2012.02.013,2012,,FALSE
Ti-Mn-O,mp-504732,[29052],Ti3Mn3O,0.609216974,Fd-3m,?,?,,,,{},{},,,,,10.1038/168558a0,1951,insufficient information: no synthesis information,FALSE
Ti-Mn-O,mp-540763,[22313],TiMn2O4,0.000227864,P4_322,y,y,1373,,"reducing atmosphere,H2/H2O",{},{},3,,"TiO2, MnCO3",,10.1016/0038-1098(68)90102-6,1968,,TRUE
Ti-Mn-O,mp-19082,"[171579, 184649, 60006, 44407, 247553]",TiMnO3,0,R-3,y,y,1473,AP,,{},{},1,,"TiO2, MnO",,10.1103/PhysRevB.88.104416,2013,ICSD 184649 not found,FALSE
Ti-Mn-O,mp-19376,"[184650, 65359, 190911]",TiMnO3,0.036319113,R3c,y,y,,,,{},{},,,,,10.1103/PhysRevB.88.104416,2013,high temperature/pressure phase of mp-19082; ICSD 184650 not found,FALSE
Ti-Mn-O,mp-556925,"[184651, 158732]",TiMnO3,0.059989802,Pnma,y,y,,,,{},{},,,,,10.1007/BF00223309,1989,high temperature/pressure phase of mp-19082; ICSD 184651 not found,FALSE
Ti-Nb-O,mp-29699,[280002],TiNb3O6,0,R-3,n,n,,,,{},{},,,"NbO, NbO2, TiO2",flux,10.1021/ja990759e,1999,,FALSE
Ti-Ni-O,mp-504735,[29055],Ti3Ni3O,1.151610181,Fd-3m,y,y,1323,0,vacuum,{},{},1,,"Ti, Ni, TiO2",,10.1080/10426914.2013.840906,2013,TiO2 was assumed as a precursor that was not intentionally included since hydrogen reduction of Ti powder elinimated the formation of Ti3Ni3O,FALSE
Ti-Ni-O,mp-540679,[15809],Ti4Ni2O,0.695566214,Fd-3m,?,?,,,,{},{},,,"TiO2, Ti2Ni",,"Transactions of the Metallurgical Society of AIME 227, 674 (1963)",1963,insufficient information: uncertainty in synthesis method,FALSE
Ti-Ni-O,mp-18732,"[33856, 15988, 33854, 33855, 171584, 38157]",TiNiO3,0,R-3,y,y,1368,,N2,"{""step1"": {""grind method"": [""agate mortar""], ""wet/dry"": [], ""liquid"": [""acetone""]}}","{""step1"": {""cool rate"": [], ""cool time"": [], ""cool medium"": [], ""cool type"": [""quench""], ""end temperature"": [""RT""], ""remark"": []}}",2,,"NiO, TiO2",,10.1007/s00269-005-0020-7,2005,,FALSE
Ti-Pb-O,mp-504427,[2104],Ti3PbO7,0,P2_1/m,y,y,1073,AP,,"{""step1"": {""grind method"": [""ball milling""], ""wet/dry"": [], ""liquid"": [""acetone""]}}",{},2,,"TiO2, PbO",,10.1111/j.1151-2916.1968.tb13326.x,1968,inhomogeneous,FALSE
Ti-Pb-O,mp-19845,"[1613, 187505, 153406, 187295, 162043, 262090, 162047]",TiPbO3,0.041221746,Pm-3m,y,y,,,,{},{},,,,,10.1107/S0567740878004938,1978,high temperature phase of mp-20459,FALSE
Ti-Pb-O,mp-20459,"[1611, 55060, 61169, 162048, 162045, 186727, 55057, 161709, 93553, 162046, 1610, 51841, 1612, 61168, 162044, 55059, 165498, 55055, 16621, 60188, 51840, 55061, 31152, 51839, 51838, 236933, 55054, 90693, 55056, 55058]",TiPbO3,0,P4mm,y,y,1273,AP,,"{""step1"": {""grind method"": [""mixed""], ""wet/dry"": [], ""liquid"": [""ethanol""]}}",{},1,,"PbO, TiO2",,10.1111/j.1551-2916.2010.04262.x,2010,,FALSE
Ti-Se-O,mp-29260,[200203],TiSe2O6,0,P2_1/c,?,?,,,,{},{},,,,,"Comptes Rendus des Seances de l'Academie des Sciences, Serie C: Sciences Chimiques 286, 705 (1978)",1978,insufficient information: no synthesis information,TRUE
Ti-Sn-O,mp-18288,[163230],TiSn2O4,0.001040411,P4_2/mbc,n,n,,,,{},{},,,"TiO2, SnO",microwave assisted solid state synthesis,10.1246/cl.2010.364,2010,,FALSE
Ti-Sn-O,mp-1018639,[186724],TiSnO3,0.157994929,Pm-3m,n,n,,,,{},{},,,,,10.4028/www.scientific.net/AMR.501.342,2012,modelling of SnTiO3; synthesized via soft chemical routes: 10.1021/acs.chemmater.8b04261; solid state synthesis attempts have been unsuccessful so far: 10.1016/j.chemphys.2008.11.002,FALSE
Ti-Te-O,mp-5214,"[98902, 9076]",TiTe3O8,0,Ia-3,y,y,973,,,{},{},1,,"TeO2, TlO2",,10.1107/S0567740871002620,1971,,TRUE
Ti-Tl-O,mp-540598,[9239],Ti4Tl2O9,0,C2/m,?,?,,,,{},{},,,,,"Bulletin de la Societe Chimique de France 1973, 1237 (1973)",1973,insufficient information: no synthesis information,FALSE
Ti-Tl-O,mp-17986,[6105],TiTl2O3,0,Pnma,y,y,873,AP,,{},{},1,,"TiO2, Tl2CO3",,10.1016/0022-4596(74)90146-7,1974,excess Tl2CO3,TRUE
Ti-V-O,mp-698211,[108830],Ti3V2O9,0.433894427,C2/c,?,?,,,,{},{},,,,,patents.google.com/patent/US5049537A/en,1989,insufficient information: uncertainty of synthesis product,FALSE
Ti-V-O,mp-1191211,[100875],TiVO4,0.053077187,P2_1/c,?,?,,,,{},{},,,,,,,ICSD 100875 contain hydrogen,N/A
Ti-Zn-O,mp-29104,[83525],Ti3Zn2O8,0,P4_332,y,y,1220,AP,,{},{},1,,"TiO2, ZnO",,10.1002/crat.2170320119,2006,,FALSE
Ti-Zn-O,mp-542737,"[166486, 109093]",TiZn2O4,0.029657548,P4_122,y,y,,,,{},{},,,,,10.2138/am-1995-9-1003,1995,"other phase of cubic Zn2TiO4, which can be synthesized via solid state synthesis; can be obtained by heating cubic phase at ~500C",FALSE
Ti-Zn-O,mp-1078470,[194214],TiZnO3,0.054927578,R3c,y,y,,,,{},{},,,,,10.1021/ja408931v,2014,other phase of mp-14142,FALSE
Ti-Zn-O,mp-14142,"[22382, 262709]",TiZnO3,0.028186511,R-3,y,y,1273,AP,,{},{},1,,"ZnO, TiO2",,10.1021/ja408931v,2014,inhomogeneous,FALSE
Tl-As-O,mp-15573,[407561],Tl3AsO4,0,P6_3,n,n,,,,{},{},,,"CuO, As2O5, Tl2CO3; Cu2O, As2O5, Tl2CO3",hydrothermal,10.1524/zkri.1998.213.1.42,1998,,FALSE
Tl-As-O,mp-1178948,"[60944, 68368]",TlAsO4,0.028927942,P2_1/c,?,?,,,,{},{},,,,,,,"ICSD 60944, 68368 contain hydrogen",N/A
Tl-Cr-O,mp-31230,[413950],Tl2Cr2O7,0.05474858,P-1,n,n,,,,{},{},,,"TlNO3, Na2Cr2O7(H2O)2, UO2(NO3)2(H2O)6",hydrothermal,10.1524/zkri.219.5.259.32744,2004,,FALSE
Tl-Cr-O,mp-9754,[201793],Tl2Cr3O12,0,Pbcn,n,n,,,,{},{},,,"CrO3, H2O, Tl(NO3)3·3H2O",hydrothermal,"Revue de Chimie Minerale 23, 70 (1986)",1986,,TRUE
Tl-Cr-O,mp-1193772,[247477],Tl2CrO4,0.014324792,C2/m,n,n,,,,{},{},,,,,10.1107/S0108270110010425,2010,other phase of mp-16892,FALSE
Tl-Cr-O,mp-16892,[9399],Tl2CrO4,0.011929421,Pnma,n,n,,,,{},{},,,,gel,10.1016/0022-4596(72)90012-6,1972,,FALSE
Tl-Cr-O,mp-561221,[155505],TlCr3O8,0,C2/m,?,?,,,,{},{},,,,,10.1103/PhysRevB.73.184101,2005,modelling of TlCr3O8,FALSE
Tl-Cr-O,mp-706518,[20467],TlCrO4,0.015408551,Pnma,?,?,,,,{},{},,,,,www.mathnet.ru/php/archive.phtml?wshow=paper&jrnid=dan&paperid=25893&option_lang=eng,1961,translation issue,TRUE
Tl-Cu-O,mp-28235,[36535],TlCu2O2,0,Imma,y,y,673,2,,{},"{""step1"": {""cool rate"": [{""value"": ""10"", ""unit"": ""C/h""}], ""cool time"": [], ""cool medium"": [], ""cool type"": [], ""end temperature"": [""RT""], ""remark"": []}}",1,,"Tl2O3, Cu2O, Cu",,10.1002/zaac.201900247,2020,,FALSE
Tl-Fe-O,mp-607310,[29011],TlFeO2,0.151648498,R-3m,?,?,,,,{},{},,,,,10.1515/znb-1972-1221,1972,insufficient information: no synthesis information,FALSE
Tl-Fe-O,mp-505819,[93835],TlFeO3,0.047273791,Pnma,y,y,1123,7,,{},{},1,,"Tl2O3, Fe2O3",,10.1006/jssc.2001.9292,2001,,FALSE
Tl-Mo-O,mp-541775,"[62690, 201931]",TlMo3O9,0.037761441,C2/m,y,y,833,0,vacuum,{},{},2,,"Tl2MoO4, MoO2, MoO3",,10.1103/PhysRevB.39.3735,1988,,FALSE
Tl-Mo-O,mp-648007,[30508],Tl2Mo4O13,0,Pbca,n,n,,,,{},{},,,"MoO3, Tl2CO3",from melt,10.1107/S0567740878011553,1978,,TRUE
Tl-Mo-O,mp-704535,[343],Tl2Mo7O22,0.015446161,C2/c,?,?,,,,{},{},,,,,10.1107/S0567740876006535,1976,insufficient information: no synthesis information,FALSE
Tl-Mo-O,mp-558755,[280056],Tl2MoO4,0.008913181,P-3m1,y,y,,,,{},{},,,,,10.1107/S0108270199008616,1999,high temperature phase of mp-18938,FALSE
Tl-Mo-O,mp-18938,"[280608, 421983]",Tl2MoO4,0,C2,y,y,773,AP,,{},{},1,,"Tl2CO3, MoO3",,10.1016/S0925-8388(99)00822-1,2000,,FALSE
Tl-Mo-O,mp-557297,[61398],Tl3Mo10O30,0.018168284,C2/m,y,y,843,0,vacuum,{},{},2,,"Tl2MoO4, MoO2, MoO3",,10.1016/0025-5408(85)90124-2,1985,,FALSE
Tl-Mo-O,mp-554919,[48138],Tl4Mo5O17,0,P-1,n,n,,,,{},{},,,"Tl2CO3, MoO3",from melt,10.1107/S0108270184009057,1984,,TRUE
Tl-Mo-O,mp-28484,[62699],TlMo6O17,0.012522338,P-3m1,y,y,833,0,vacuum,{},{},1,,"Tl2MoO4, MoO2, MoO3",,10.1016/0038-1098(86)90195-X,1986,,FALSE
Tl-Ni-O,mp-1178989,[95948],TlNiO3,0.160307768,P2_1/c,y,?,,,,{},{},,,,,10.1021/cm021157o,2002,other refinement of mp-18001,FALSE
Tl-Ni-O,mp-18001,[93507],TlNiO3,0.073584871,Pnma,y,y,973,9,,{},"{""step1"": {""cool rate"": [], ""cool time"": [], ""cool medium"": [], ""cool type"": [""quench""], ""end temperature"": [""RT""], ""remark"": []}}",1,,"Tl2O3, Ni(OH)2, KClO3",,10.1039/B007043M,2001,,FALSE
Tl-Pd-O,mp-5478,"[2276, 2275]",TlPd3O4,0,Fm-3m,y,y,873,AP,,{},{},1,,"Pd, Tl",,10.1002/zaac.201000012,2010,inhomogeneous,FALSE
Tl-Pt-O,mp-13801,[22215],Tl2Pt2O7,0,Fd-3m,y,y,1273,4,,{},{},1,,"Tl2O3, PtO2",,10.1021/ic50059a030,1968,,FALSE
Tl-Re-O,mp-28808,[73083],TlReO4,0,P2_1/c,n,n,,,,{},{},,,"Tl2CO3, Re2O7",solution method,10.1002/zaac.200300270,2004,,FALSE
Tl-Ru-O,mp-22094,"[172017, 51158]",Tl2Ru2O7,0,Fd-3m,y,y,1173,1,,{},{},1,,"RuO2, Tl2O3, Ru, KClO4",,10.1006/jssc.1998.7848,1998,,FALSE
Tl-Sb-O,mp-30059,[77330],Tl2Sb3O9,0.045633111,Pn-3,?,?,,,,{},{},,,,,"Dissertation Stockholm (1943) 1943, (*) Article ID * (p. 1-144)",1943,translation issue: Sweden thesis with too many pages,FALSE
Tl-Sb-O,mp-27220,[4124],Tl5SbO5,0,Cmc2_1,y,y,923,,,{},{},1,y,"Sb2O5, Tl2CO3",,"Revue de Chimie Minerale 12, 93 (1975)",1975,,TRUE
Tl-Sb-O,mp-30058,[77329],TlSbO3,0.000231515,R-3,y,?,,,,{},{},,,,,"Dissertation Stockholm (1943) 1943, (*) Article ID * (p. 1-144)",1943,translation issue: Sweden thesis with too many pages; might be other phase or refinement of mp-561465,FALSE
Tl-Sb-O,mp-561465,[10142],TlSbO3,0.134793382,P6_322,y,y,923,,,{},{},1,,"Sb2O5, Tl2CO3",,"Comptes Rendus des Seances de l'Academie des Sciences, Serie C: Sciences Chimiques 274, 1576 (1972)",1972,,TRUE
Tl-Se-O,mp-553909,[170707],Tl2Se3O9,0,P2_1/c,n,n,,,,{},{},,,"Tl2O3, H2SeO3",hydrothermal,10.1107/S0108270105018111,2005,,FALSE
Tl-Se-O,mp-559961,[99384],Tl2SeO4,0,P2_12_12_1,?,?,,,,{},{},,,,,10.1016/j.jssc.2003.10.020,2004,low temperature phase of mp-4449,FALSE
Tl-Se-O,mp-4449,"[419777, 73411, 419776, 99383, 419775, 99382]",Tl2SeO4,0.001028564,Pnma,?,?,,,,{},{},,,,,10.1107/S0108270193003373,1993,insufficient information: only precursor information was found,FALSE
Tl-Sn-O,mp-540586,[6325],Tl2SnO3,0,Pnma,y,y,923,AP,,{},{},1,y,"Tl2CO3, SnO2",,10.1016/S0022-4596(74)80003-4,1974,,TRUE
Tl-Te-O,mp-29690,[86782],Tl2Te2O5,0,P2_1/c,y,y,623,,N2,{},{},2,y,"Tl2CO3, TeO2",,10.1016/S0022-3697(01)00192-5,2002,alpha phase,FALSE
Tl-Te-O,mp-558279,[150779],Tl2Te3O7,0.001790578,P-1,y,y,623,,N2,{},{},2,y,"Tl2CO3, TeO2",,10.1016/S0022-3697(01)00192-5,2002,,FALSE
Tl-Te-O,mp-543028,"[240675, 409430, 200965]",Tl2TeO3,0,Pban,y,y,623,,N2,{},{},2,y,"Tl2CO3, TeO2",,10.1016/S0022-3697(01)00192-5,2002,,FALSE
Tl-Te-O,mp-14410,[37134],Tl6TeO12,0,R-3,y,y,773,,O2,{},{},1,,"Tl2O3, TeO2",,10.1016/0022-4596(83)90080-4,1983,,TRUE
Tl-Te-O,mp-8387,[37135],Tl6TeO6,0,R-3,n,n,,,,{},{},,,Tl6TeO12,reduction,10.1016/0022-4596(83)90080-4,1983,,TRUE
Tl-V-O,mp-583506,[154165],Tl2V8O21,0.009953489,C2/m,y,y,783,AP,,{},{},1,,"TlNO3, V2O5",,10.1016/j.solidstatesciences.2004.10.013,2005,,FALSE
Tl-V-O,mp-1192129,[248229],Tl3V5O14,0,P31m,y,y,653,AP,,{},{},1,,"Tl2CO3, V2O5",,10.1021/ic1008297,2010,,FALSE
Tl-V-O,mp-29047,[80667],Tl3VO4,0,Imm2,?,?,,,,{},{},,,,,10.1016/0025-5408(91)90078-Z,1991,insufficient information: suggest solid state synthesis were used by previous papers,FALSE
Tl-V-O,mp-541368,"[72809, 72810]",Tl4V2O7,0,P-3m1,y,y,623,,N2,"{""step1"": {""grind method"": [""agate mortar""], ""wet/dry"": [], ""liquid"": []}}",{},1,,"Tl2CO3, V2O5",,10.1017/S0885715600018728,1992,,FALSE
Tl-V-O,mp-18996,"[20688, 65773]",TlV3O8,0,P2_1/m,y,y,643,,inert gas,{},{},1,,"Tl2CO3, V2O5",,10.1107/S010827018900627X,1990,,FALSE