system,mp_id,icsd_ids,composition,e_above_hull,Spacegroup Number,solid_state_synthesized_composition,solid_state_synthesized_structure,sss_highest_temperature(K),sss_pressure(GPa),sss_atmosphere,sss_mixing_condition,sss_cooling_condition,sss_heating_step,single_crystal,sss_precursor,other_synthesis_method,reference,reference_year,comment,google_translate
Nd-Zr-O,mp-5977,"[261854, 62793, 62794, 153227, 249974, 154754, 174187, 201277]",Nd2Zr2O7,0,Fd-3m,y,y,1723,AP,,"{""step1"": {""grind method"": [""ball milling""], ""wet/dry"": [], ""liquid"": [""acetone""]}}",{},2,,"Nd2O3, ZrO2",,10.1016/j.jssc.2011.05.054,2011,inhomogeneous; ICSD 154754 not found,FALSE
Ni-Ag-O,mp-19405,"[160582, 160578, 160580, 160579, 290597, 160575, 160581, 416373, 160576, 172559, 160577, 160574, 290598, 172558, 412279]",NiAg2O2,0.066471256,R-3m,y,y,823,0.065,O2,{},{},1,,"Ag2O, NiO, KOH",,10.1002/1521-3773(20020215)41:4<643::AID-ANIE643>3.0.CO;2-U,2002,KOH as mineralizer,FALSE
Ni-Ag-O,mp-557620,[172878],Ni2Ag3O4,0.348183831,P6_3/mmc,y,y,823,0.13,O2,{},"{""step1"": {""cool rate"": [{""value"": ""100"", ""unit"": ""C/h""}], ""cool time"": [], ""cool medium"": [], ""cool type"": [], ""end temperature"": [""RT""], ""remark"": []}}",1,,"Ag2O, AgNiO2, KOH",,10.1016/j.jssc.2006.08.033,2007,KOH as mineralizer,FALSE
Ni-Ag-O,mp-19069,[73974],NiAgO2,0.029880862,R-3m,y,n,,,,{},{},,,,ion exchange,10.1006/jssc.1993.1352,1993,other phase of mp-19284,FALSE
Ni-Ag-O,mp-19284,[415451],NiAgO2,0.07722615,P6_3/mmc,y,y,773,0.1,O2,{},{},1,,"Ag2O, Ni(OH)2",,10.1149/1.2798983,2007,inhomogeneous,FALSE
Ni-As-O,mp-19384,[80349],NiAs2O6,0,P-31m,y,y,973,AP,,{},{},1,,"As2O5, NiO",,10.1006/jssc.1995.1361,1995,,FALSE
Ni-As-O,mp-22754,[69002],Ni2As2O7,0.023863707,C2/m,y,y,,,,{},{},,,,,10.1016/0022-4596(90)90109-B,1990,high temperature phase of mp-1199861,FALSE
Ni-As-O,mp-1199861,[261145],Ni2As2O7,0.099296768,P1,y,y,1173,AP,,{},"{""step1"": {""cool rate"": [], ""cool time"": [{""value"": ""3"", ""unit"": ""hour""}], ""cool medium"": [], ""cool type"": [], ""end temperature"": [""RT""], ""remark"": []}}",1,,"As2O5, Ni(NO3)2",,10.1016/0022-4596(90)90109-B,1990,alpha phase,FALSE
Ni-As-O,mp-1198130,[78354],Ni2As2O9,0.274524267,P2_1/c,?,?,,,,{},{},,,,,,,ICSD 78354 contain hydrogen,N/A
Ni-As-O,mp-504969,[63708],Ni3As2O8,0,Cmce,y,n,,,,{},{},,,Ni3(AsO4)2·8H2O,decomposition,10.1107/S0108768191002987,1991,other phase of mp-19519,FALSE
Ni-As-O,mp-19519,[63709],Ni3As2O8,0.044286285,P2_1/c,y,y,1223,,,"{""step1"": {""grind method"": [""mortar""], ""wet/dry"": [], ""liquid"": []}}","{""step1"": {""cool rate"": [], ""cool time"": [], ""cool medium"": [], ""cool type"": [""furnace cool""], ""end temperature"": [""RT""], ""remark"": []}}",1,,"As2O3, Ni(NO3)2·6H2O",,10.22034/JNA.2018.541865,2018,,FALSE
Ni-As-O,mp-1105634,[81391],Ni5As2O12,0.215416551,C2/m,?,?,,,,{},{},,,,,,,ICSD 81391 contain hydrogen,N/A
Ni-Bi-O,mp-1105718,"[245818, 245817, 97768]",NiBiO3,0.051161642,P-1,y,y,1483,6,,{},"{""step1"": {""cool rate"": [], ""cool time"": [], ""cool medium"": [], ""cool type"": [""quench""], ""end temperature"": [""RT""], ""remark"": []}}",1,,"Bi2O3, NiO, KClO3",,10.1103/PhysRevB.81.144103,2009,,FALSE
Ni-Ge-O,mp-22638,[69508],Ni2GeO4,0,Fd-3m,y,y,1473,AP,,"{""step1"": {""grind method"": [""agate mortar""], ""wet/dry"": [], ""liquid"": [""acetone""]}}","{""step1"": {""cool rate"": [], ""cool time"": [], ""cool medium"": [""air""], ""cool type"": [""quench""], ""end temperature"": [""RT""], ""remark"": []}}",2,,"NiO, GeO2",,10.1023/A:1026099427671,2003,,FALSE
Ni-Mo-O,mp-1180053,[419794],NiMo4O15,0.17102622,P-1,?,?,,,,{},{},,,,,,,ICSD 419794 contain hydrogen,N/A
Ni-Mo-O,mp-505273,"[239295, 81059, 174488]",NiMoO4,0,C2/m,y,y,1273,0,vacuum,"{""step1"": {""grind method"": [""agate mortar""], ""wet/dry"": [], ""liquid"": [""acetone""]}}","{""step1"": {""cool rate"": [{""value"": ""120"", ""unit"": ""C/h""}], ""cool time"": [], ""cool medium"": [], ""cool type"": [], ""end temperature"": [""RT""], ""remark"": []}}",1,,"NiO, MoO3",,10.1016/0304-8853(95)00290-1,1995,alpha phase; ICSD 174488 not found,FALSE
Ni-Mo-O,mp-19019,[81060],NiMoO4,0.009516528,P2/c,y,y,,,,{},{},,,,,10.1016/0304-8853(95)00516-1,1995,high temperature/pressure phase of mp-505273,FALSE
Ni-Pb-O,mp-1078668,"[187686, 187685, 187684]",NiPbO3,0,R3c,y,y,,,,{},{},,,,,10.1103/PhysRevB.86.014116,2012,"modelling of LiNbO3-type PbNiO3, which can be synthesized via solid state reaction: 10.1021/ja206247j",FALSE
Ni-Rh-O,mp-636519,[23487],NiRh2O4,0.083712988,I4_1/amd,y,y,1323,,O2,{},{},1,,"NiO, Rh2O3·xH2O",,10.1103/PhysRevMaterials.2.034404,2017,,FALSE
Ni-Sb-O,mp-21275,"[41228, 86491, 41226, 86489, 86490, 41225, 86492, 41227]",NiSb2O4,0.01660234,P4_2/mbc,y,y,873,,N2,{},{},1,,"NiO, Sb2O3",,10.1016/0022-4596(82)90210-9,1982,,TRUE
Ni-Sb-O,mp-505271,"[426852, 80802]",NiSb2O6,0,P4_2/mnm,y,y,1050,AP,,{},{},2,,"NiCO3, Sb2O5",,10.1016/0022-4596(91)90063-N,1991,,FALSE
Ni-Sb-O,mp-1190650,[247303],Ni2Sb2O7,0.313613557,Fd-3m,y,y,723,AP,,{},{},2,,"Ni(Ac)2·2H2O, Sb2O5·xH2O",,10.1016/j.jssc.2010.01.025,2010,,FALSE
Ni-Se-O,mp-1197896,[69850],Ni3Se3O10,0.13076106,P-1,?,?,,,,{},{},,,,,,,ICSD 69850 contain hydrogen,N/A
Ni-Se-O,mp-1200945,[16228],NiSeO10,1.018088786,P4_12_12,?,?,,,,{},{},,,,,,,ICSD 16228 contain hydrogen,N/A
Ni-Se-O,mp-572987,"[239332, 239336, 416251]",NiSeO3,0.06596378,C2/c,y,n,,,,{},{},,,"NiO, SeO2, NiBr",chemical transport reaction,10.1088/0953-8984/19/19/196203,2007,,FALSE
Ni-Se-O,mp-20460,"[497, 190004]",NiSeO3,0,Pnma,y,y,1123,3.5,,{},"{""step1"": {""cool rate"": [], ""cool time"": [], ""cool medium"": [], ""cool type"": [""quench""], ""end temperature"": [""RT""], ""remark"": []}}",1,,"H2SeO3, NiO",,10.1039/B607905A,2006,,FALSE
Ni-Se-O,mp-18817,[25700],NiSeO4,0,Cmcm,n,n,,,,{},{},,,NiSeO4·6H2O,decomposition,10.1016/S0040-6031(96)03062-6,1997,,FALSE
Ni-Te-O,mp-17360,[50703],Ni2Te3O8,0,C2/c,y,y,975,,Ar,{},{},1,,"NiO, TeO2",,10.1016/S0925-8388(99)00079-1,1999,,FALSE
Ni-Te-O,mp-19448,"[237872, 237873, 27076]",Ni3TeO6,0,R3,y,y,1075,,Ar,{},{},1,,"NiO, TeO2",,10.1016/S0925-8388(99)00079-1,1999,,FALSE
Ni-Te-O,mp-504692,[26533],NiTe2O5,0.057018168,Pnma,y,y,975,,Ar,{},{},1,,"NiO, TeO2",,10.1016/S0925-8388(99)00079-1,1999,,FALSE
Ni-Te-O,mp-1196304,[250508],NiTe6O13,0.001566543,R-3,n,n,,,,{},{},,,"BaCO3, NiCl2·6H2O, TeO2, H2O",hydrothermal,10.1039/B300573A,2003,,FALSE
Ni-W-O,mp-21179,"[16685, 15852]",NiWO4,0,P2/c,y,y,1275,0,vacuum,{},{},2,,"NiO, WO3",,10.1007/BF00542815,1977,,FALSE
Np-Se-O,mp-772890,[291298],NpSe2O6,0.105824568,P2_1/c,n,n,,,,{},{},,,"NpO2, SeO2",hydrothermal,10.1021/ic500181t,2014,,FALSE
Np-Se-O,mp-1196536,[261698],Np2SeO9,0,P2_1/c,?,?,,,,{},{},,,,,,,ICSD 261698 contain hydrogen,N/A
Np-Se-O,mp-680712,[281697],Np3Se3O13,0.018661069,Pbca,n,n,,,,{},{},,,"NpO2, SeO2, CsCl",hydrothermal,10.1021/ic035241x,2004,,FALSE
Np-Se-O,mp-1018828,[421034],NpSeO,0,P4/nmm,y,y,1073,0,vacuum,{},{},1,,"Np2Se5, NpO2",,10.1016/0025-5408(85)90151-5,1985,inhomogeneous,FALSE
Os-Pb-O,mp-680932,[23444],OsPbO3,0,Fd-3m,y,y,853,,O2,{},{},1,,"PbO2, Os",,"Comptes Rendus des Seances de l'Academie des Sciences, Serie C: Sciences Chimiques 274, 178 (1972)",1972,,TRUE
Pb-Se-O,mp-558163,[154718],PbSe2O6,0.071563183,P2_1/c,n,n,,,,{},{},,,"SeO2, Pb(CH3COO)4, H2O",precipitation,10.1016/j.jallcom.2005.10.003,2006,,FALSE
Pb-Se-O,mp-1201603,[79707],PbSe2O6,0.157031964,Pbcn,n,?,,,,{},{},,,,,,,ICSD 79707 contain hydrogen,N/A
Pb-Se-O,mp-510293,"[55076, 186872]",Pb3SeO5,0,Cmc2_1,n,n,,,,{},{},,,"PbO, SeO2, NaOH, H2O",hydrothermal,10.1021/cm902639p,2009,,FALSE
Pb-Se-O,mp-662535,[79688],PbSe2O5,0,P2_1/c,n,n,,,,{},{},,,"PbSeO3, Pb(NO3)2, SeO2, H2SeO3",precipitation,10.1107/S0108270194005093,1995,,FALSE
Pb-Se-O,mp-20716,"[22371, 1271, 9380, 98376]",PbSeO3,0,P2_1/m,n,n,,,,{},{},,,,,10.1007/BF02237518,1963,,FALSE
Pb-Se-O,mp-630329,[94763],PbSeO3,0.003092478,P2_1/c,n,n,,,,{},{},,,,,10.1021/cm0112690,2002,other phase of mp-20716,FALSE
Pb-Se-O,mp-22342,[40921],PbSeO4,0,P2_1/c,n,n,,,,{},{},,,"lead acetate, Na2SeO4",precipitation,10.1021/acs.inorgchem.5b01135,2015,ICSD 40921 doi not working,FALSE
Pb-W-O,mp-22681,[61399],Pb2WO5,0.032850398,C2/m,y,y,833,AP,,{},{},1,,"PbO, WO3",,10.1016/0025-5408(85)90126-6,1985,alpha phase,TRUE
Pb-W-O,mp-641415,"[187837, 155521, 33]",PbWO4,0.044289294,P2_1/c,y,y,,,,{},{},,,,,10.1007/s00269-013-0575-7,2013,PbWO4-III; high temperature/pressure phase of mp-22410,FALSE
Pb-W-O,mp-641365,[155519],PbWO4,0.061128085,C2/c,y,?,,,,{},{},,,,,10.1103/PhysRevB.73.224103,2006,modelling of high pressure PbWO4,FALSE
Pb-W-O,mp-504591,"[811, 250592]",PbWO4,0,P2_1/c,y,n,,,,{},{},,,,natural mineral,10.1107/S056774087700291X,1977,PbWO4-II; other phase of mp-22410,FALSE
Pb-W-O,mp-641441,[155522],PbWO4,0.248920514,Cmce,y,?,,,,{},{},,,,,10.1103/PhysRevB.73.224103,2006,modelling of high pressure PbWO4,FALSE
Pb-W-O,mp-22410,"[195229, 93376, 77337, 155518, 75981, 164726, 155514, 16189, 81550, 56110, 93377, 93374, 93373, 93375]",PbWO4,0.050939125,I4_1/a,y,y,1373,AP,,"{""step1"": {""grind method"": [""agate mortar""], ""wet/dry"": [], ""liquid"": []}}",{},2,,"WO3, PbO",,10.1016/j.jssc.2015.04.004,2015,PbWO4-I,FALSE
Pb-W-O,mp-558734,[155520],PbWO4,0.035102722,P2_1/c,y,?,,,,{},{},,,,,10.1103/PhysRevB.73.224103,2006,modelling of high pressure PbWO4,FALSE
Pd-Pb-O,mp-1195421,[195138],PdPb2O6,0.540046918,P4_2/ncm,?,?,,,,{},{},,,,,,,ICSD 195138 contain hydrogen,N/A
Pd-Pb-O,mp-1103838,"[263049, 263050]",Pd2PbO4,0,I4_1/a,y,y,1500,6,,{},"{""step1"": {""cool rate"": [], ""cool time"": [], ""cool medium"": [], ""cool type"": [""quench""], ""end temperature"": [""RT""], ""remark"": []}}",1,,"PbO2, PdO",,10.1021/ic3006579,2012,,FALSE
Pd-Pb-O,mp-22367,"[185483, 20674, 152544, 2277]",PdPbO2,0,Imma,y,y,973,AP,,"{""step1"": {""grind method"": [""agate mortar""], ""wet/dry"": [], ""liquid"": []}}",{},1,,"PbO, PdO",,10.1016/j.jallcom.2004.06.089,2005,excess PbO,FALSE
Pd-Se-O,mp-4649,"[249505, 417900]",PdSe2O5,0,C2/c,n,n,,,,{},{},,,"Pd, H2SeO4",solvothermal,10.1002/ejic.200700321,2007,,FALSE
Pd-Se-O,mp-546684,[415955],PdSeO3,0.009686583,C2/m,n,n,,,,{},{},,,"Pd, H2SeO4",solvothermal,10.1002/ejic.200700321,2007,other phase of mp-545482,FALSE
Pd-Se-O,mp-545482,[249504],PdSeO3,0,P2_1/m,n,n,,,,{},{},,,"Pd(NO3)2, KNO3, H2SeO4, H2O",hydrothermal,10.1021/ic700524c,2007,,FALSE
Pd-Se-O,mp-561490,[416646],PdSeO4,0.007900321,C2/c,n,n,,,,{},{},,,"Pd, H2SeO4",solvothermal,10.1002/ejic.200700321,2007,,FALSE
Pr-Al-O,mp-3466,"[90558, 90564, 165844, 165847, 165843, 90565, 165845, 90562, 165846, 90563, 90560, 165840, 165841, 90561, 165842, 165848, 90566, 90557, 90559]",PrAlO3,0,R-3c,y,y,1473,AP,,{},{},4,,"Pr3O4, Al(NO3)3·9H2O",,10.1088/0953-8984/12/4/301,2000,,FALSE
Pr-Al-O,mp-8218,"[90570, 90567, 90569, 90568, 90571, 35549]",PrAlO3,0.018016815,Pm-3m,y,?,,,,{},{},,,,,10.1088/0953-8984/12/4/301,2000,high temperature refinement of mp-3466,FALSE
Pr-As-O,mp-754109,[430621],PrAsO4,0.016209985,I4_1/a,y,y,,,,{},{},,,,,10.1515/znb-2015-0210,2016,"high temperature/pressure phase of monoclinic PrAsO4, which can be synthesized via solid state synthesis: 10.1016/0022-5088(82)90275-2",FALSE
Pr-Bi-O,mp-545539,[419609],Pr2BiO2,0,I4/mmm,y,y,1770,,,{},"{""step1"": {""cool rate"": [{""value"": ""50"", ""unit"": ""C/h""}], ""cool time"": [], ""cool medium"": [], ""cool type"": [], ""end temperature"": [""RT""], ""remark"": []}}",2,,"Pr4O7, PrBi",,10.1016/j.jallcom.2008.09.181,2009,,FALSE
Pr-Co-O,mp-20090,"[97111, 88738, 164819, 164817, 164820, 172045, 164818]",PrCoO3,0,Pnma,y,y,1473,AP,,{},{},1,,"Pr6O11, Co2O3",,10.1103/PhysRevB.79.134103,2009,,FALSE
Pr-Co-O,mp-20427,[28922],PrCoO3,0.141042248,Pm-3m,y,?,,,,{},{},,,,,10.1021/ja01633a031,1954,might be old refinement of mp-20090,FALSE
Pr-Cr-O,mp-19353,[28932],PrCrO3,0.0443045,Pm-3m,y,?,,,,{},{},,,,,10.1021/ja01633a031,1954,might be old refinement of mp-18863,FALSE
Pr-Cr-O,mp-1105822,"[251098, 251097]",PrCrO3,0.125964201,Pnma,y,y,1473,AP,,{},{},1,,,,10.1063/5.0002651,2020,,FALSE
Pr-Cr-O,mp-18863,"[26978, 93349]",PrCrO4,0,I4_1/amd,y,y,853,,O2,{},"{""step1"": {""cool rate"": [], ""cool time"": [], ""cool medium"": [], ""cool type"": [""quench""], ""end temperature"": [""RT""], ""remark"": []}}",1,,"Pr(NO3)3·6H2O, Cr(NO3)3·9H2O",,10.1016/S0925-8388(01)00978-1,2001,,FALSE
Pr-Cu-O,mp-1188871,[180494],Pr2Cu2O5,0.060187814,Pbam,y,y,1673,6,,{},{},1,,"Pr2CuO4, CuO",,10.1080/08957950903462309,2010,,FALSE
Pr-Cu-O,mp-16115,[91073],Pr2CuO4,0.06255055,Cmce,y,y,,,,{},{},,,,,10.1006/jssc.2000.8645,2000,high pressure phase of mp-4181,FALSE
Pr-Cu-O,mp-4181,"[91071, 261374, 71180, 186589, 185267, 185268, 65925, 65924, 191813, 261373, 202884, 72241]",Pr2CuO4,0,I4/mmm,y,y,1373,AP,,{},{},1,,"Pr2O3, CuO",,10.1103/PhysRevB.40.6998,1989,,FALSE
Pr-Cu-O,mp-10498,[91072],Pr2CuO4,0.080257994,I4/mmm,y,y,,,,{},{},,,,,10.1006/jssc.2000.8645,2000,high pressure phase of mp-4181,FALSE
Pr-Cu-O,mp-13694,"[246822, 18103]",PrCuO2,0,R-3m,y,y,1123,,Ar,{},{},1,,"Pr2O3, Cu2O",,10.1016/j.jssc.2009.05.035,2009,,FALSE
Pr-Fe-O,mp-1197438,"[248013, 422690]",Pr3Fe5O12,0,Ia-3d,n,n,,,,{},{},,,"Fe (NO3)3·9H2O, Pr(NO3)3·6H2O, KOH, H2O",hydrothermal,10.1016/j.jssc.2011.03.010,2011,,FALSE
Pr-Fe-O,mp-22341,"[63645, 188202, 96492, 153963, 27274, 189725]",PrFeO3,0.123206573,Pnma,y,y,1523,AP,,{},"{""step1"": {""cool rate"": [{""value"": ""180"", ""unit"": ""C/h""}], ""cool time"": [], ""cool medium"": [], ""cool type"": [], ""end temperature"": [""RT""], ""remark"": []}}",1,,"Pr6O11, Fe2O3",,10.1016/j.vacuum.2013.06.014,2014,,FALSE
Pr-Ga-O,mp-15577,[409416],Pr4Ga2O9,0,P2_1/c,y,y,1753,AP,,{},{},1,,"Pr2O3, Ga2O3",,10.1515/ncrs-1999-0413,1999,,FALSE
Pr-Ga-O,mp-9833,[76049],PrGaO3,1.491796155,Pm-3m,y,?,,,,{},{},,,,,"Atti della Accademia Nazionale dei Lincei, Classe di Scienze Fisiche, Matematiche e Naturali, Rendiconti 17, 48 (1954)",1954,might be old refinement of mp-4535,FALSE
Pr-Ga-O,mp-4535,"[153163, 73765, 73766]",PrGaO3,0.029203046,Pnma,y,y,1673,AP,,"{""step1"": {""grind method"": [""agate mortar""], ""wet/dry"": [], ""liquid"": [""acetone""]}}",{},2,,"Pr2O3, Ga2O3",,10.1016/0025-5408(74)90134-2,1974,,FALSE
Pr-In-O,mp-21135,[240907],Pr3InO,0,Pm-3m,n,n,,,,{},{},,,"Pr, In, Cu",flux,10.1107/S1600536807046727,2007,,FALSE
Pr-Ir-O,mp-558448,"[239646, 156436]",Pr2Ir2O7,0,Fd-3m,y,y,1473,0,vacuum,{},{},2,,"Pr6O11, IrO2",,10.1103/PhysRevB.90.235110,2014,,FALSE
Pr-Ir-O,mp-5322,"[99670, 86473]",Pr3IrO7,0,Cmcm,y,y,1523,,O2,"{""step1"": {""grind method"": [""agate mortar""], ""wet/dry"": [], ""liquid"": []}}","{""step1"": {""cool rate"": [{""value"": ""30"", ""unit"": ""C/h""}], ""cool time"": [], ""cool medium"": [], ""cool type"": [], ""end temperature"": [""RT""], ""remark"": []}}",1,,"Pr6O11, Ir",,10.1016/j.jssc.2003.08.036,2004,,FALSE
Pr-Lu-O,mp-21872,[50758],PrLuO3,0.012616476,Pnma,y,y,1623,,"H2,O2","{""step1"": {""grind method"": [""agate mortar""], ""wet/dry"": [], ""liquid"": []}}",{},2,,"Pr6O11, Lu2O3",,10.1006/jssc.1999.8228,1999,,FALSE
Pr-Mn-O,mp-22802,"[91769, 97042, 84351, 84669]",PrMn2O5,0,Pbam,y,y,1273,AP,,"{""step1"": {""grind method"": [""mixed""], ""wet/dry"": [], ""liquid"": [""ethanol""]}}",{},1,,"Pr6O11, Mn2O3",,10.1134/S0036024416050332,2016,,FALSE
Pr-Mn-O,mp-1188985,"[163259, 163258]",PrMn7O12,0.153779708,C2/m,y,y,,,,{},{},,,,,10.1103/PhysRevB.79.014420,2009,"ICSD 163259, 163258 wrong doi; high temperature/pressure phase of mp-1205396",FALSE
Pr-Mn-O,mp-1205396,[163257],PrMn7O12,0.021073233,R-3,y,y,1273,4,,{},"{""step1"": {""cool rate"": [], ""cool time"": [], ""cool medium"": [], ""cool type"": [""quench""], ""end temperature"": [""RT""], ""remark"": []}}",1,,"MnO2, Mn2O3, Pr6O11",,10.1103/PhysRevB.79.014420,2009,ICSD 163257 wrong doi,FALSE
Pr-Mn-O,mp-22564,"[84922, 97082, 156073, 155901, 97084, 97081, 15718, 97083, 155896]",PrMnO3,0,Pnma,y,y,1533,AP,,{},"{""step1"": {""cool rate"": [], ""cool time"": [], ""cool medium"": [""air""], ""cool type"": [""quench""], ""end temperature"": [""RT""], ""remark"": []}}",2,,"Pr6O11, MnCO3",,10.1006/jssc.1997.7414,1997,,FALSE
Pr-Mo-O,mp-541958,[280337],PrMo6O12,0.270192669,I4/m,n,n,,,,{},{},,,"Rb2MoO4, MoO3, Pr6O11",electrolysis?,10.1107/S1600536800019048,2001,,FALSE
Pr-Mo-O,mp-1196789,[261452],Pr16Mo21O56,0.107451965,P2_1/c,y,y,2000,,,{},"{""step1"": {""cool rate"": [{""value"": ""100"", ""unit"": ""C/h""}], ""cool time"": [], ""cool medium"": [], ""cool type"": [], ""end temperature"": [{""value"": ""1373"", ""unit"": ""K""}], ""remark"": []}, ""step2"": {""cool rate"": [], ""cool time"": [], ""cool medium"": [], ""cool type"": [""furnace cool""], ""end temperature"": [""RT""], ""remark"": []}}",1,y,"Pr6O11, MoO3, Mo",,10.1107/S1600536811015649,2011,,FALSE
Pr-Mo-O,mp-560897,[68279],Pr2Mo4O15,0.011063264,P-1,?,?,,,,{},{},,,,,"Zhurnal Neorganicheskoi Khimii 33, 3001 (1988)",1988,translation issue: russian,FALSE
Pr-Mo-O,mp-30215,[281197],Pr3MoO7,0.003652283,P2_12_12_1,y,y,1973,,,{},"{""step1"": {""cool rate"": [{""value"": ""100"", ""unit"": ""C/h""}], ""cool time"": [], ""cool medium"": [], ""cool type"": [], ""end temperature"": [{""value"": ""1373"", ""unit"": ""K""}], ""remark"": []}, ""step2"": {""cool rate"": [], ""cool time"": [], ""cool medium"": [], ""cool type"": [""furnace cool""], ""end temperature"": [""RT""], ""remark"": []}}",1,y,"Pr6O11, MoO3, Mo",,10.1107/S1600536803001892,2003,,FALSE
Pr-Mo-O,mp-700127,[91127],Pr5Mo32O54,0.210861567,P2_1/c,y,y,1873,,,{},{},1,,"Pr6O11, MoO3, Mo",,10.1006/jssc.2000.8697,2000,,FALSE
Pr-Mo-O,mp-1202854,[174567],Pr5Mo3O16,0.031439471,Pn-3n,y,y,1373,AP,,{},{},1,,"Pr6O11, MoO2",,10.1016/j.jssc.2010.10.015,2010,inhomogeneous,FALSE
Pr-Mo-O,mp-16671,[281370],PrMo5O8,0.238220012,P2_1/c,y,y,1973,,,{},"{""step1"": {""cool rate"": [{""value"": ""50"", ""unit"": ""C/h""}], ""cool time"": [], ""cool medium"": [], ""cool type"": [], ""end temperature"": [{""value"": ""1373"", ""unit"": ""K""}], ""remark"": []}, ""step2"": {""cool rate"": [], ""cool time"": [], ""cool medium"": [], ""cool type"": [""furnace cool""], ""end temperature"": [""RT""], ""remark"": []}}",1,y,"Pr6O11, MoO2",,10.1107/S0108768103011194,2003,,FALSE
Pr-Nb-O,mp-557497,[50505],Pr2Nb11O30,0.023297044,P-62c,n,n,,,,{},{},,,"PrOCl, Nb2O5, NH4Cl",chemical transport reaction,10.1002/(SICI)1521-3749(199809)624:9<1533::AID-ZAAC1533>3.0.CO;2-7,1998,,TRUE
Pr-Nb-O,mp-14963,[78007],Pr3NbO7,0.002919227,Cmcm,y,y,1573,AP,,"{""step1"": {""grind method"": [""agate mortar""], ""wet/dry"": [], ""liquid"": [""acetone""]}}",{},2,,"Pr6O11, Nb2O5",,10.1016/j.jssc.2007.03.029,2007,,FALSE
Pr-Nb-O,mp-558373,[62834],PrNb3O9,0.007286397,P2_1/c,y,n,,,,{},{},,,"Nb2O5, PrOCl, H2O",hydrothermal,10.1016/0022-4596(85)90236-1,1985,"alpha phase; other phase of beta phase PrNb3O9, which can be synthesized via solid state reaction: 10.1016/0167-2738(93)90253-Y",FALSE
Pr-Nb-O,mp-28707,[66808],PrNb5O14,0.024849694,Pmmn,?,?,1223,0,vacuum,{},{},1,,"praseodymium oxobromide, NH4Br, Nb2O5",,"Jiegou Huaxue 15, 35 (1996)",1996,insufficient information: uncertain about the precursors praseodymium oxobromide and NH4Br,FALSE
Pr-Nb-O,mp-4709,"[109302, 109176]",PrNbO4,0,C2/c,y,y,1673,AP,,"{""step1"": {""grind method"": [""ball milling""], ""wet/dry"": [], ""liquid"": [""acetone""]}}","{""step1"": {""cool rate"": [{""value"": ""600"", ""unit"": ""C/h""}], ""cool time"": [], ""cool medium"": [], ""cool type"": [], ""end temperature"": [""RT""], ""remark"": []}}",1,,"Pr6O11, Nb2O5",,10.1016/j.ssi.2013.12.023,2014,,FALSE
Pr-Ni-O,mp-505093,[67813],Pr2NiO4,0.128598423,P4_2/ncm,y,y,,,,{},{},,,,,10.1103/PhysRevB.47.5834,1992,low temperature phase of ,FALSE
Pr-Ni-O,mp-18839,[81577],Pr2NiO4,0.114674808,I4/mmm,y,?,,,,{},{},,,,,www.koreascience.or.kr/article/JAKO199513464462997.page,1995,doped sample; off-stoichiometric,FALSE
Pr-Ni-O,mp-19434,[63406],Pr2NiO4,0.28114579,Cmce,y,y,1470,,"air,H2",{},{},2,,"NiO, Pr6O11",,10.1007/BF01324337,1991,,FALSE
Pr-Ni-O,mp-19170,"[69187, 69186]",PrNiO3,0.003865921,R-3c,y,y,,,,{},{},,,,,10.1016/0025-5408(90)90138-R,1990,high temperature phase of mp-22280,FALSE