system,mp_id,icsd_ids,composition,e_above_hull,Spacegroup Number,solid_state_synthesized_composition,solid_state_synthesized_structure,sss_highest_temperature(K),sss_pressure(GPa),sss_atmosphere,sss_mixing_condition,sss_cooling_condition,sss_heating_step,single_crystal,sss_precursor,other_synthesis_method,reference,reference_year,comment,google_translate
Tl-V-O,mp-18842,[74438],TlV4O10,0.029036597,C2/m,y,y,843,0,vacuum,{},"{""step1"": {""cool rate"": [], ""cool time"": [], ""cool medium"": [], ""cool type"": [""quench""], ""end temperature"": [""RT""], ""remark"": []}}",1,,"TlVO3, VO2, V2O5",,10.1016/0022-4596(92)90024-P,1992,off-stoichiometric,FALSE
Tl-V-O,mp-22330,[6108],TlVO3,0.006313608,Pbcm,y,y,699,,,{},{},1,,"Tl2CO3, V2O5",,10.1016/0040-6031(85)85919-0,1985,,FALSE
Tl-W-O,mp-19341,[8212],Tl2WO4,0,P-3m1,y,y,973,AP,,{},{},1,y,"Tl2CO3, WO3",,10.1107/S0567740879008736,1979,,FALSE
Tm-Co-O,mp-561954,[172050],TmCoO3,0.022385076,Pnma,y,y,1173,2,,{},"{""step1"": {""cool rate"": [], ""cool time"": [], ""cool medium"": [], ""cool type"": [""quench""], ""end temperature"": [""RT""], ""remark"": []}}",1,,"KClO4, Tm2O3, Co(OH)2",,10.1039/B515607F,2006,,FALSE
Tm-Cr-O,mp-777295,"[251104, 247738, 251103]",TmCrO3,0.179701779,Pnma,y,y,1673,AP,,{},{},1,,"Tm2O3, Cr2O3",,10.1016/j.materresbull.2012.08.005,2012,,FALSE
Tm-Cr-O,mp-22647,"[51905, 96407]",TmCrO4,0,I4_1/amd,y,y,773,,O2,{},{},3,,"Cr(NO3)3·9H2O, Tm(NO3)3·6H2O",,10.1016/S0022-4596(02)00203-7,2003,,FALSE
Tm-Cu-O,mp-3120,"[69329, 79431]",Tm2Cu2O5,0.061962348,Pna2_1,y,y,1223,AP,,{},{},1,,"CuO, Tm2O3",,10.1006/jssc.1995.1141,1995,,FALSE
Tm-Fe-O,mp-1077874,"[195813, 195812, 195814]",TmFe2O4,0.101558487,R-3m,y,y,1473,,CO/CO2,{},{},1,,"Tm2O3, Fe2O3",,10.1016/j.physb.2006.01.155,2006,,FALSE
Tm-Fe-O,mp-20651,"[189734, 27283, 25658, 98319]",TmFeO3,0.025544183,Pnma,y,y,1473,AP,,"{""step1"": {""grind method"": [""mixed""], ""wet/dry"": [], ""liquid"": [""ethanol""]}}",{},1,,"Tm2O3, Fe2O3",,10.1016/0304-8853(94)01660-7,1995,,FALSE
Tm-Fe-O,mp-558400,[55404],TmFeO3,0.011423237,P6_3cm,y,n,,,,{},{},,,,CVD,10.1021/cm0353660,2004,other phase of mp-20651; thin film,FALSE
Tm-Ge-O,mp-14708,[68806],Tm2Ge2O7,0,P4_12_12,y,y,1746,AP,,"{""step1"": {""grind method"": [""agate mortar""], ""wet/dry"": [], ""liquid"": []}}",{},3,,"Tm2O3, GeO2",,10.1134/S003602441903004X,2019,,FALSE
Tm-Mn-O,mp-755041,[195759],Tm2Mn2O7,0,Fd-3m,y,y,1673,5,,{},{},1,,,,10.1002/pssa.2211130273,1989,,FALSE
Tm-Mn-O,mp-554211,[162202],TmMnO3,0,P6_3cm,y,y,1473,AP,,{},{},1,,"Tm2O3, MnO2",,10.1021/acs.inorgchem.5b01498,2015,,FALSE
Tm-Mn-O,mp-554270,"[162209, 183142]",TmMnO3,0.337429309,Pnma,y,y,,,,{},{},,,hexagonal TmMnO3,,10.1016/j.matchemphys.2008.07.009,2008,high temperature/pressure phase of mp-554211,FALSE
Tm-Mo-O,mp-31123,[99573],Tm2MoO6,0,C2/c,y,y,1423,AP,,{},{},1,,"Tm2O3, MoO3",,10.1016/j.jssc.2004.03.046,2004,,FALSE
Tm-Mo-O,mp-16392,[281036],Tm4Mo4O11,0.180527925,Pbam,y,y,1673,,Ar,{},"{""step1"": {""cool rate"": [{""value"": ""100"", ""unit"": ""C/h""}], ""cool time"": [], ""cool medium"": [], ""cool type"": [], ""end temperature"": [{""value"": ""1100"", ""unit"": ""C""}], ""remark"": []}, ""step2"": {""cool rate"": [], ""cool time"": [], ""cool medium"": [], ""cool type"": [""furnace cool""], ""end temperature"": [""RT""], ""remark"": []}}",1,,"MoO3, Mo, Tm2O3",,10.1021/ic011000i,2002,,FALSE
Tm-Nb-O,mp-555109,[109181],TmNbO4,0,C2/c,y,y,1573,AP,,{},"{""step1"": {""cool rate"": [], ""cool time"": [], ""cool medium"": [], ""cool type"": [""slow cooling""], ""end temperature"": [""RT""], ""remark"": []}}",2,,"Tm2O3, Nb2O5",,10.1107/S0567740871005697,1971,,FALSE
Tm-Ni-O,mp-1106304,"[189289, 92049, 189291]",TmNiO3,0.073044493,P2_1/c,y,y,1173,2,,{},{},1,,"Tm2O3, Ni(OH)2, KClO4",,10.1103/PhysRevB.87.184111,2013,,FALSE
Tm-Ni-O,mp-19002,"[189295, 189296, 189290]",TmNiO3,0.006335259,Pnma,y,y,,,,{},{},,,,,10.1103/PhysRevB.87.184111,2013,high temperature phase of mp-1106304,FALSE
Tm-Re-O,mp-10094,[280143],Tm5Re2O12,0,C2/m,y,y,1473,,Ar,"{""step1"": {""grind method"": [""agate mortar""], ""wet/dry"": [], ""liquid"": [""acetone""]}}","{""step1"": {""cool rate"": [{""value"": ""180"", ""unit"": ""C/h""}], ""cool time"": [], ""cool medium"": [], ""cool type"": [], ""end temperature"": [""RT""], ""remark"": []}}",1,,"Tm2O3, ReO2",,10.1107/S0108768199005194,1999,,FALSE
Tm-Re-O,mp-10342,[88796],Tm6ReO12,0,R-3,y,y,1473,,Ar,"{""step1"": {""grind method"": [""agate mortar""], ""wet/dry"": [], ""liquid"": [""acetone""]}}","{""step1"": {""cool rate"": [{""value"": ""180"", ""unit"": ""C/h""}], ""cool time"": [], ""cool medium"": [], ""cool type"": [], ""end temperature"": [""RT""], ""remark"": []}}",1,,"Tm2O3, ReO2",,10.1006/jssc.1999.8435,1999,,FALSE
Tm-Ru-O,mp-555716,[109307],Tm2Ru2O7,0.043788822,Fd-3m,y,y,1673,0,vacuum,"{""step1"": {""grind method"": [""agate mortar""], ""wet/dry"": [], ""liquid"": []}}",{},1,,"Tm2O3, RuO2",,10.1016/j.ssi.2019.01.010,2019,,FALSE
Tm-Sn-O,mp-3334,"[84750, 82963]",Tm2Sn2O7,0,Fd-3m,y,y,1773,AP,,{},{},2,,"Tm2O3, SnO2",,10.1006/jssc.1997.7277,1997,,FALSE
Tm-Ta-O,mp-12933,[415459],TmTaO4,0,P2/c,y,y,1523,AP,,"{""step1"": {""grind method"": [""ball milling""], ""wet/dry"": [], ""liquid"": []}, ""step2"": {""grind method"": [""milling""], ""wet/dry"": [], ""liquid"": [""Freon-TF solvent""]}}",{},2,,"Tm2O3, Ta2O5",,10.1149/1.2119609,1983,,FALSE
Tm-Te-O,mp-557354,[413662],Tm2Te4O11,0.00326011,C2/c,?,?,,,,{},{},,,,,10.1023/A:1010146609068,2000,"insufficient information: ""When no X-ray data were available, the mixture was assumed to be homogeneous if the X-ray patterns of the tellurites obtained exhibited no bands characteristic of the starting metal oxides or tellurous oxide"", XRD data of this compound not avaliable on ICSD until 2004",FALSE
Tm-Te-O,mp-555236,[413667],Tm2Te5O13,0,P-1,n,n,,,,{},{},,,"Tm2O3, TeO2, CsCl",flux,10.1515/znb-2005-0704,2005,,TRUE
Tm-Ti-O,mp-38418,[191614],Tm2Ti2O7,0.021362858,Fd-3m,y,y,1623,,"air,O2","{""step1"": {""grind method"": [""ball milling""], ""wet/dry"": [], ""liquid"": [""acetone""]}}",{},2,,"Tm2O3, TiO2",,10.1021/ic50017a049,1964,,FALSE
Tm-V-O,mp-19036,[32690],Tm2V2O7,0.082927007,Fd-3m,y,y,1673,,CO/CO2,{},{},1,,"Tm2O3, V2O5",,10.1016/0025-5408(79)90225-3,1979,,FALSE
Tm-V-O,mp-755258,[185839],TmVO3,0.094786655,Pnma,y,y,1473,0,vacuum,"{""step1"": {""grind method"": [""agate mortar""], ""wet/dry"": [], ""liquid"": []}}",{},1,,"Tm2O3, V2O3",,10.1016/0025-5408(74)90049-X,1974,,FALSE
Tm-V-O,mp-19068,"[15602, 78081]",TmVO4,0,I4_1/amd,y,y,1273,AP,,"{""step1"": {""grind method"": [""agate mortar""], ""wet/dry"": [], ""liquid"": []}}",{},9,,"Tm2O3, V2O5",,10.1134/S0012501615080035,2015,,FALSE
U-As-O,mp-1204439,[190683],UAs2O12,0.914725907,I4_1/acd,?,?,,,,{},{},,,,,,,ICSD 190683 contain hydrogen,N/A
U-Bi-O,mp-548598,[1805],UBi2O6,0.039862613,P-3m1,y,y,1073,AP,,{},{},1,,"Bi2O3, UO3",,10.1107/S0567740875002221,1975,,FALSE
U-Bi-O,mp-1192909,"[97296, 97297]",UBiO5,0.16436896,P2_1/c,?,?,,,,{},{},,,,,,,"ICSD 97296, 97297 contain hydrogen",N/A
U-Cd-O,mp-1006058,[166737],UCd2O5,0.020826078,C2/c,y,y,1073,,"air,O2",{},{},1,,"CdO, U3O8; Cd3UO6, CdUO4",,10.1016/0022-1902(64)80179-2,1964,,FALSE
U-Cd-O,mp-14000,[26427],UCdO4,0.051596608,R-3m,y,y,793,AP,,{},{},1,,"CdO, UO3·2H2O",,10.1016/0022-4596(81)90077-3,1981,alpha phase,FALSE
U-Cd-O,mp-545598,"[26428, 20504]",UCdO4,0,Cmmm,y,y,,,,{},{},,,,,10.1016/0022-4596(81)90077-3,1981,beta phase; high temperature phase of mp-14000,FALSE
U-Co-O,mp-1193472,[86239],U2Co3O8,0.479899907,Pmn2_1,y,y,,,,{},{},,,,,10.1002/pssa.2210720249,1982,low temperature phase of mp-22523,FALSE
U-Co-O,mp-22523,"[86237, 167478, 86238, 2598]",U2Co3O8,0.073499677,Pnnm,y,y,1373,0,vacuum,{},{},1,,"U3O8, UO2, CoO",,www.persee.fr/doc/bulmi_0037-9328_1971_num_94_4_6601,1971,,TRUE
U-Co-O,mp-540842,"[28127, 166250]",U2CoO6,0.055555386,P321,y,y,1073,0,vacuum,{},{},1,,"UO2, CoUO4",,10.1016/j.jnucmat.2008.10.033,2009,,FALSE
U-Co-O,mp-19089,[26939],UCoO4,0.170053954,Imma,y,y,1273,,O2,{},{},1,,"UO3, CoO",,10.1051/jphysrad:01962002308-9047700,1962,,TRUE
U-Cr-O,mp-22172,"[275, 15133, 274]",UCr2O6,0.020624898,P-31m,y,y,873,4,,{},{},1,,,,10.1016/0022-4596(76)90005-0,1976,,TRUE
U-Cr-O,mp-17151,"[15724, 15859]",UCrO4,0.150337626,Pbcn,y,y,1873,AP,,{},{},1,,"Cr2O3, UO2",,10.1016/0022-1902(62)80104-3,1962,,FALSE
U-Cu-O,mp-615420,[73611],U3CuO10,0.035616292,P-1,y,y,1023,AP,,{},{},1,,"CuO, UO2(NO3)2",,10.1039/JM9930300339,1993,,FALSE
U-Cu-O,mp-28073,[36071],UCuO4,0.06617709,P2_1/c,y,y,1146,AP,,{},{},1,,"CuO, U3O8",,10.1016/0925-8388(93)90326-I,1993,,FALSE
U-Cu-O,mp-1188600,[1041],UCuO6,0.354334872,P-1,?,?,,,,{},{},,,,,,,ICSD 1041 contain hydrogen,N/A
U-Fe-O,mp-504549,[15709],UFeO4,0.360281515,Pbcn,y,y,1248,0,vacuum,"{""step1"": {""grind method"": [""mortar""], ""wet/dry"": [], ""liquid"": []}}",{},2,,"U3O8, Fe3O4",,10.1039/C6DT00066E,2016,,FALSE
U-Ge-O,mp-1193054,[1866],U2GeO10,0.390381681,Fddd,?,?,,,,{},{},,,,,,,ICSD 1866 contain hydrogen,N/A
U-Ge-O,mp-7567,[16639],UGeO4,0.16772157,I4_1/a,y,y,1323,,,{},{},1,,"GeO2, UO2",,10.1107/S0365110X56001418,1956,,TRUE
U-Mn-O,mp-639978,[26938],UMnO4,0.534923164,Imma,y,y,1273,AP,,{},{},1,,"Mn2O3, UO2",,10.1051/jphys:019660027011-12072600,1966,,TRUE
U-Mo-O,mp-504890,"[25380, 28088, 37235, 166508]",UMo2O8,0.052900102,Pban,y,y,923,0,vacuum,{},{},2,,"UMoO5, MoO3",,10.1016/j.jnucmat.2011.11.069,2012,beta phase,FALSE
U-Mo-O,mp-704511,[250125],UMo2O8,0.140035485,Pbca,y,n,,,,{},{},,,,,10.1134/1.1686873,2003,gamma phase; other phase of mp-504890,FALSE
U-Mo-O,mp-1204282,[96613],UMo2O11,0.430173116,C2/c,?,?,,,,{},{},,,,,,,ICSD 96613 contain hydrogen,N/A
U-Mo-O,mp-32069,[80162],UMo5O16,0.02935849,P2,y,y,923,0,vacuum,{},{},2,,"UO2, MoO3, MoO2",,10.1016/j.jnucmat.2011.11.069,2012,,FALSE
U-Mo-O,mp-618968,[82460],UMoO5,0.05857617,Pcca,y,y,1170,0,vacuum,{},{},2,,"MoO3, Mo, U3O8",,10.1107/S0108768196009597,1996,,FALSE
U-Mo-O,mp-18958,"[16212, 36400]",UMoO6,0.000691454,P2_1/c,y,y,923,0,vacuum,{},{},2,,"UO2, MoO3",,10.1016/j.jnucmat.2011.11.069,2012,,FALSE
U-Nb-O,mp-29393,[400325],UNb2O7,0.023421128,Cmcm,y,y,1373,0,vacuum,{},{},1,,"UO2, Nb2O5",,10.1002/zaac.19946200620,1994,from abstract,FALSE
U-Nb-O,mp-3696,"[26997, 84406]",UNb3O10,0.024306587,Fddd,y,y,1373,0,vacuum,{},{},1,,"NbO2, U3O8, Nb2O5",,10.1039/A605883C,1997,,FALSE
U-Ni-O,mp-540841,"[28126, 166251]",U2NiO6,0.078449282,P321,y,y,1073,0,vacuum,{},{},1,,"NiO, UO2, UO3",,10.1016/j.jnucmat.2008.10.033,2009,,FALSE
U-Pb-O,mp-650598,"[15323, 61253]",UPb3O6,0,Pnma,y,y,923,AP,,{},{},1,,"PbUO4, PbO; U3O8, PbO",,10.1107/S0365110X67002580,1967,,FALSE
U-Pb-O,mp-1198411,[72523],U11Pb3O36,0,Pmmn,y,y,1063,AP,,{},{},1,,"PbUO4, U3O8",,10.1107/S0108270192010874,1993,,FALSE
U-Pb-O,mp-1203291,[38374],U5Pb2O22,0.30365935,P2_1/c,?,?,,,,{},{},,,,,,,ICSD 38374 contain hydrogen,N/A
U-Pb-O,mp-504922,[61344],UPbO4,0,Pbcm,y,y,873,AP,,{},{},1,,"PbO, amorphous UO3",,10.1016/j.jnucmat.2016.07.021,2016,,FALSE
U-Rh-O,mp-13836,[23463],URh2O6,0,P4_2/mnm,y,y,1173,,,{},{},2,,"UO3, Rh2O3",,"Comptes Rendus des Seances de l'Academie des Sciences, Serie C: Sciences Chimiques 275, 371 (1972)",1972,,TRUE
U-Sb-O,mp-31256,[413442],USb2O6,0.001805091,C2/m,n,n,,,,{},{},,,"UO3, Sb2O3, KCl, H2O",hydrothermal,10.1016/j.jssc.2003.12.033,2004,,FALSE
U-Se-O,mp-1190315,[427536],U7Se12O2,0.025738234,P-6,n,n,,,,{},{},,,"CsCl, Se, SeO2, U",flux,10.1002/zaac.201400144,2014,,FALSE
U-Se-O,mp-28299,[60513],USe2O7,0,P-1,y,y,720,,,{},{},1,y,"SeO2, UO3",,10.1016/0022-4596(86)90036-8,1986,,FALSE
U-Se-O,mp-1178872,[83428],USe2O9,0.265861122,C2/c,?,?,,,,{},{},,,,,,,ICSD 83428 contain hydrogen,N/A
U-Se-O,mp-3217,"[25682, 421033, 73408]",USeO,0.053729109,P4/nmm,y,y,1223,,,{},{},1,,"UO2, USe2",,10.1016/0022-5088(91)90250-8,1991,,FALSE
U-Se-O,mp-27723,[1623],USeO5,0.013893134,P2_1/m,y,y,633,0,vacuum,{},{},1,,"SeO2, amorphous UO3",,10.1107/S056774087800549X,1978,,FALSE
U-Se-O,mp-562338,[2580],USeO6,0,P2_1/c,n,n,,,,{},{},,,USeO6·4H2O,decomposition,10.1016/0021-9614(77)90183-5,1977,alpha phase,FALSE
U-Ta-O,mp-16002,[391091],U2Ta6O19,0.025030807,P6_3/mcm,n,n,,,,{},{},,,"UO2, Ta2O5, HfO2, HCl",chemical transport reaction,10.1002/1521-3749(200011)626:11<2299::AID-ZAAC2299>3.0.CO;2-G,2000,,TRUE
U-Ta-O,mp-27862,[27779],UTa2O8,0.45887591,P-31m,y,y,1973,,,{},{},1,,"UO2, Ta2O5",,www.persee.fr/doc/bulmi_0037-9328_1960_num_83_1_5369,1960,,TRUE
U-Te-O,mp-554219,[9080],UTe3O9,0.00700327,Pa-3,y,y,993,,O2,{},{},2,,"UO2, TeO2; U3O8, TeO2",,10.1023/A:1004705620488,2000,,FALSE
U-Te-O,mp-12625,[108986],U2TeO2,0,I4/mmm,?,?,,,,{},{},,,,,10.1016/0022-3115(71)90020-1,1971,secondary phase,FALSE
U-Te-O,mp-28939,[79214],U4Te3O4,0.115261011,I4/mmm,n,n,,,,{},{},,,U3Te4,oxidation,10.1016/0925-8388(94)01301-W,1995,,FALSE
U-Te-O,mp-1201899,[130009],UTe3O8,0.151479632,Pa-3,y,y,1023,0,vacuum,{},{},1,,"UO2, TeO2",,10.1023/A:1004705620488,2000,,FALSE
U-Te-O,mp-3037,"[22204, 38176]",UTeO,0.037499126,P4/nmm,y,y,,,,{},{},,,"UO2, UTe2; UO2, U, Te",,"Bulletin de l'Academie Polonaise des Sciences, Serie des Sciences Chimiques (1961) 9, (*) Article ID * (p. 373-377)",1961,from abstract,FALSE
U-Te-O,mp-3516,[1624],UTeO5,0.000350052,Pbcm,y,y,973,0,vacuum,{},{},1,,"UO3, TeO2",,10.1039/JM9960601211,1996,,FALSE
U-Ti-O,mp-9771,[201342],UTi2O6,0.037881028,C2/m,y,y,1573,,Ar,{},{},1,,"U3O8, TiO2",,10.1111/j.1151-2916.2001.tb00621.x,2004,,FALSE
U-V-O,mp-505253,"[80027, 79308]",U2V2O11,0.033108658,P2_1/c,n,n,,,,{},{},,,2NH4UO2.VO4·xH2O,decomposition,10.1039/JM9950500141,1995,,FALSE
U-V-O,mp-22544,[28086],UV2O6,0.094985574,P-31m,?,?,,,,{},{},,,,,"Radiokhimiya 13, 909 (1971)",1971,translation issue,FALSE
U-V-O,mp-541493,[80028],UV2O8,0,Pnma,y,y,923,,O2,{},{},1,,"U3O8, V2O5",,10.1039/JM9950500141,1995,,FALSE
U-V-O,mp-686936,[25379],UV2O8,0.171285767,Pnma,y,?,,,,{},{},,,,,"Revue de Chimie Minerale 7, 807 (1970)",1970,might be old refinement of UV2O8: similar synthesis condition,FALSE
U-V-O,mp-505163,[73610],UV3O10,0.054425473,Fddd,y,y,823,0,vacuum,{},{},1,,"V2O5, V2O3, U3O8",,10.1039/JM9930300033,1993,,FALSE
U-V-O,mp-20179,"[23499, 28087, 66388, 20472]",UVO5,0.064646448,Pbcm,y,y,973,0,vacuum,{},{},1,,"V2O3, V2O5, U3O8",,10.1039/JM9920200161,1992,,FALSE
U-W-O,mp-704795,[2285],UW2O8,0.194928136,Pbca,y,y,1170,0,vacuum,{},{},2,,"WO3, U3O8, W",,10.1006/jssc.1996.0024,1996,,FALSE
U-W-O,mp-644303,[81983],UW3O11,0.047181991,Pmma,y,y,1170,0,vacuum,{},{},2,,"WO3, U3O8, W",,10.1006/jssc.1996.0024,1996,,FALSE
V-Ag-O,mp-1197838,[38065],V2Ag4O7,0.039092385,Pbca,y,y,633,AP,,{},{},1,,"Ag2O, V2O5",,10.1039/B300179B,2003,,FALSE
V-Ag-O,mp-19402,[93453],V4Ag2O11,0.005534338,C2/m,y,y,798,,"air,O2",{},{},1,,"Ag2O, V2O5",,10.1088/0953-8984/13/31/308,2001,,FALSE
V-Ag-O,mp-18889,"[424347, 417469, 249417]",VAg3O4,0,C2/c,y,y,653,AP,,{},{},1,,"V2O5, Ag2O",,10.1039/B300179B,2003,alpha phase,FALSE
V-Ag-O,mp-19412,"[424348, 417470]",VAg3O4,0.030712779,I-42m,y,y,,,,{},{},,,,,10.1021/cm301119c,2012,beta phase; high temperature phase of mp-18889,FALSE
V-Ag-O,mp-559736,[82079],VAgO3,0.002438501,Cm,y,y,693,,O2,{},{},1,,"V2O5, Ag2O",,10.1006/jssc.1996.0117,1999,beta phase,FALSE
V-Ag-O,mp-624691,[50645],VAgO3,0.011451211,C2/c,y,y,,,,{},{},,,,,10.1006/jssc.1998.8044,1999,alpha phase; other phase of mp-559736,FALSE
V-As-O,mp-1194395,[424067],V3As2O9,0.029360208,P4bm,y,y,833,0,vacuum,"{""step1"": {""grind method"": [""agate mortar""], ""wet/dry"": [], ""liquid"": []}}",{},1,,"As2O3, VO2",,10.1016/j.jssc.2012.04.022,2012,alpha phase,FALSE
V-As-O,mp-28337,[60781],V4As2O13,0,P1,y,y,833,0,vacuum,{},"{""step1"": {""cool rate"": [{""value"": ""60"", ""unit"": ""C/h""}], ""cool time"": [], ""cool medium"": [], ""cool type"": [], ""end temperature"": [""RT""], ""remark"": []}}",1,,"As2O3, V2O5",,10.1107/S0108270186091837,1986,,FALSE
V-As-O,mp-1193420,[261321],VAsO5,0.009693366,P2_1/c,?,?,,,,{},{},,,"NH4VO3, NaNO3, NH4H2AsO4",,10.1107/S1600536811004053,2011,minority phase,TRUE
V-Bi-O,mp-1204532,[85180],VBi2O6,0.101213145,P2_1/c,?,?,,,,{},{},,,,,,,ICSD 85180 contain hydrogen,N/A
V-Bi-O,mp-647265,[391414],V2Bi7O15,0.021678575,C2/c,?,?,,,,{},{},,,"Bi2O3, V2O5, PbO",,10.1016/j.solidstatesciences.2007.07.004,2007,different stoichiometry: PbBi6V2O15,FALSE
V-Bi-O,mp-29058,[81090],V3Bi6O16,0,Pnma,y,y,923,0,vacuum,{},"{""step1"": {""cool rate"": [], ""cool time"": [], ""cool medium"": [], ""cool type"": [""quench""], ""end temperature"": [""RT""], ""remark"": []}}",1,,"Bi2O3, V3O7",,10.1016/0168-583X(94)00383-1,1995,,FALSE
V-Bi-O,mp-1205158,[88995],VBi2O5,0.089631081,Pnma,y,y,823,0,vacuum,{},"{""step1"": {""cool rate"": [], ""cool time"": [], ""cool medium"": [], ""cool type"": [""quench""], ""end temperature"": [""RT""], ""remark"": []}}",1,,"Bi2O3, VO2",,10.1016/S0025-5408(99)00058-6,1999,alpha phase,FALSE
V-Bi-O,mp-23506,"[100603, 100605, 100604, 33243, 100602]",VBiO4,0.015372514,C2/c,y,y,973,AP,,"{""step1"": {""grind method"": [""agate mortar""], ""wet/dry"": [], ""liquid"": []}}",{},2,,"Bi(No3)3·5H2O, NH4VO3",,10.1016/j.molstruc.2004.10.075,2005,inhomogeneous,FALSE
V-Bi-O,mp-1102997,[181561],VBiO4,0.072780595,C2/c,y,?,,,,{},{},,,,,10.1039/C0CP01871F,2011,modelling of mp-23506,FALSE
V-Bi-O,mp-23044,"[62706, 100601, 62707]",VBiO4,0.015118221,I4_1/a,y,y,,,,{},{},,,,,10.1080/01411598608218306,1986,high pressure phase of mp-23506,FALSE
V-Bi-O,mp-545850,[100733],VBiO4,0,I4_1/amd,y,n,,,,{},{},,,,natural mineral,10.1002/jrs.1499,2006,other phase of mp-23506,FALSE
V-Bi-O,mp-540864,"[70118, 30907, 22261]",VBiO4,0.020201981,Pbcn,y,n,,,,{},{},,,,natural mineral,10.1002/jrs.1499,2006,other phase of mp-23506,FALSE
V-Cd-O,mp-18740,"[24191, 62081]",V2Cd2O7,0,C2/m,y,y,1223,AP,,{},{},6,,"CdO, V2O5",,10.1134/S1063783417120344,2017,,FALSE
V-Cd-O,mp-18847,[28961],V2CdO4,0,Fd-3m,y,y,993,0,vacuum,{},{},1,,"CdO, V2O3",,10.1088/0953-8984/14/28/105,2002,,FALSE
V-Cd-O,mp-556313,[249319],V2CdO6,0.042571409,Pbcn,y,y,,,,{},{},,,,,10.1107/S0108270107017623,2007,high temperature/pressure phase of mp-550622,FALSE
V-Cd-O,mp-550622,[21065],V2CdO6,0,C2/m,y,y,923,AP,,"{""step1"": {""grind method"": [""agate mortar""], ""wet/dry"": [], ""liquid"": []}}","{""step1"": {""cool rate"": [], ""cool time"": [], ""cool medium"": [""air""], ""cool type"": [""quench""], ""end temperature"": [""RT""], ""remark"": []}}",1,,"V2O3, CdCO3",,10.1007/BF00721483,1989,beta phase,FALSE
V-Cd-O,mp-540685,[15926],V2CdO6,0.016918942,C2/m,y,y,,,,{},{},,,,,10.1007/BF00721483,1989,alpha phase; high temperature phase of mp-550622,FALSE
V-Cd-O,mp-541360,"[72603, 190401]",V3CdO7,0.016115898,Pnma,y,y,1073,0,vacuum,{},{},1,,"V2O3, V2O5, CdO",,10.1088/0953-8984/14/23/307,2002,,FALSE
V-Cd-O,mp-1200595,[421347],V4Cd9O19,0.000767351,P1,?,?,,,,{},{},,,,,10.1016/j.jssc.2010.01.018,2010,insufficient information: ratio of CdO impurity unclear,FALSE
V-Cd-O,mp-556857,[88387],VCdO3,0,Pnma,y,y,1073,0,vacuum,{},{},1,,"V2O3, V2O5, CdO",,10.1088/0953-8984/11/3/014,1999,,FALSE
V-Cd-O,mp-22649,[172795],VCdO3,0.073939383,Pnma,y,y,,,,{},{},,,,,10.1016/j.jssc.2006.02.018,2006,high temperature/pressure phase of mp-556857,FALSE
V-Co-O,mp-27156,[2357],V2Co2O7,0.163583901,P2_1/c,y,y,1023,AP,,"{""step1"": {""grind method"": [""agate mortar""], ""wet/dry"": [], ""liquid"": [""alcohol""]}}","{""step1"": {""cool rate"": [], ""cool time"": [], ""cool medium"": [], ""cool type"": [], ""end temperature"": [""RT""], ""remark"": []}}",1,,"V2O5, Co2O3",,10.3390/ma13071628,2020,excess V2O5,FALSE
V-Co-O,mp-540833,"[2645, 27289, 27288]",V2Co3O8,0.296774553,Cmce,y,y,1373,,N2,{},{},4,,"Co3O4, V2O5",,10.1016/S0038-1098(02)00597-5,2002,,FALSE
V-Co-O,mp-572871,[40849],V2CoO6,0.021302842,P-1,y,y,983,,Ar,{},{},3,,"Co(C2H4)·2H2O, V2O5",,10.1016/0925-8388(91)90008-J,1991,,TRUE
V-Co-O,mp-1178823,[46003],V2CoO6,0.029015417,C2,y,?,,,,{},{},,,,,10.1016/j.jssc.2012.04.029,2012,other refinement of mp-19311,FALSE