system,mp_id,icsd_ids,composition,e_above_hull,Spacegroup Number,solid_state_synthesized_composition,solid_state_synthesized_structure,sss_highest_temperature(K),sss_pressure(GPa),sss_atmosphere,sss_mixing_condition,sss_cooling_condition,sss_heating_step,single_crystal,sss_precursor,other_synthesis_method,reference,reference_year,comment,google_translate
Pr-Ni-O,mp-22280,"[92201, 69185, 246701, 67718, 67720, 69786, 246702, 67721, 246704, 69184, 69787, 246703, 69183, 67719]",PrNiO3,0,Pnma,y,y,1273,0.02,O2,{},{},2,,"Pr2O3, NiO",,10.1016/0022-4596(91)90077-U,1991,,FALSE
Pr-Os-O,mp-31354,"[187409, 59754]",Pr3OsO7,0,Cmcm,y,y,1223,0,vacuum,{},{},1,,"Pr2O3, Pr6O11, OsO2",,10.1016/j.jssc.2012.09.039,2013,,FALSE
Pr-Pd-O,mp-15050,[78843],PrPd2O4,0,I4_1/a,y,y,1125,2,,{},{},1,,"Pr6O11, PdO, KClO3",,10.1002/zaac.19966220617,1996,,TRUE
Pr-Re-O,mp-11207,[96410],Pr3ReO7,0.051220047,Cmcm,y,y,1273,0,vacuum,{},"{""step1"": {""cool rate"": [], ""cool time"": [], ""cool medium"": [], ""cool type"": [""furnace cool""], ""end temperature"": [""RT""], ""remark"": []}}",3,,"Pr2O3, ReO3, ReO2",,10.1016/S0022-4596(02)00210-4,2003,,FALSE
Pr-Re-O,mp-16163,[92508],Pr3ReO8,0,P2_1/c,n,n,,,,{},{},,,Pr(RhO4)3,decomposition,10.1002/(SICI)1521-3749(200001)626:1<80::AID-ZAAC80>3.0.CO;2-S,2000,,FALSE
Pr-Rh-O,mp-4789,"[172348, 172354]",PrRhO3,0,Pnma,y,y,1373,,O2,"{""step1"": {""grind method"": [""agate mortar""], ""wet/dry"": [], ""liquid"": []}}",{},1,,"Rh2O3, Pr2O3",,10.1111/jace.16606,2019,,FALSE
Pr-Ru-O,mp-3430,"[82303, 163397, 78123]",Pr2Ru2O7,0.042457046,Fd-3m,y,y,1323,AP,,"{""step1"": {""grind method"": [""agate mortar""], ""wet/dry"": [], ""liquid"": []}}",{},1,,"Pr6O11, RuO2",,10.1016/j.jallcom.2008.09.106,2009,,FALSE
Pr-Ru-O,mp-5433,"[90848, 51795]",Pr3RuO7,0.027666335,Cmcm,y,y,1473,AP,,"{""step1"": {""grind method"": [""agate mortar""], ""wet/dry"": [], ""liquid"": []}}",{},1,,"Pr6O11, RuO2",,10.1006/jssc.2001.9467,2002,,FALSE
Pr-Ru-O,mp-558974,[419957],Pr5Ru2O12,0,C2/m,n,n,,,,{},{},,,"RuO2, Pr2O3, KOH",flux,10.1016/j.jssc.2009.02.013,2009,,FALSE
Pr-Ru-O,mp-20186,[75570],PrRuO3,0.083599995,Pnma,y,y,1573,2,,{},{},1,,"Pr6O11, RuO2, Ru",,10.1016/0025-5408(94)90151-1,1994,,FALSE
Pr-Sb-O,mp-2973,"[22502, 67020]",Pr3Sb5O12,0,I-43m,y,y,963,0,vacuum,{},{},1,,"Pr2O3, Sb2O3",,10.1016/0022-3697(89)90033-4,1989,,FALSE
Pr-Sb-O,mp-5448,"[78010, 191961, 78009]",Pr3SbO7,0,Cmcm,y,y,1523,AP,,{},{},4,,"Pr6O11, Sb2O3",,10.1006/jssc.1994.1003,1994,,FALSE
Pr-Sb-O,mp-555896,[241209],Pr9Sb5O5,0,P4/n,y,y,1920,,Ar,"{""step1"": {""grind method"": [""agate mortar""], ""wet/dry"": [], ""liquid"": []}}","{""step1"": {""cool rate"": [{""value"": ""50"", ""unit"": ""C/h""}], ""cool time"": [], ""cool medium"": [], ""cool type"": [], ""end temperature"": [""RT""], ""remark"": []}}",2,,"PrSb, Pr4O7, Pr",,10.1107/S0108768107051282,2007,,FALSE
Pr-Sb-O,mp-1205344,[245046],PrSbO4,0,P2_1/c,y,y,,,,{},{},,,,,10.1002/zaac.200600249,2007,beta phase; high temperature phase of mp-13194,FALSE
Pr-Sb-O,mp-13194,[245047],PrSbO4,0.005069347,P2_1/c,y,y,1273,AP,,"{""step1"": {""grind method"": [""ball milling""], ""wet/dry"": [], ""liquid"": []}}",{},1,,"Pr6O11, Sb2O5",,10.1002/zaac.200600249,2007,alpha phase,TRUE
Pr-Sc-O,mp-559756,"[195600, 710019, 99539]",PrScO3,0,Pnma,y,y,1748,AP,,"{""step1"": {""grind method"": [""agate mortar""], ""wet/dry"": [], ""liquid"": [""acetone""]}}",{},2,,"Pr7O12, Tb7O11",,10.1016/j.jssc.2004.02.025,2004,,FALSE
Pr-Se-O,mp-560835,[94413],Pr10Se14O,0.003470178,I4_1/acd,n,n,,,,{},{},,,"Pr, Se, SeO2, CsCl",flux,10.1002/1521-3749(200106)627:6<1383::AID-ZAAC1383>3.0.CO;2-F,2001,,TRUE
Pr-Se-O,mp-683974,[416077],Pr2Se3O9,0,P2_1/c,n,n,,,,{},{},,,"Pr6O11, SeO2, Pr, PrCl3",flux,10.1002/zaac.200500513,2006,,FALSE
Pr-Se-O,mp-10925,[94414],Pr2Se2O,0.002543702,P2_1/c,n,n,,,,{},{},,,"Pr, Se, SeO2, CsCl",flux,10.1002/1521-3749(200106)627:6<1383::AID-ZAAC1383>3.0.CO;2-F,2001,,TRUE
Pr-Se-O,mp-1200382,[83399],Pr2Se3O16,0.313454874,P2_1/c,?,?,,,,{},{},,,,,,,ICSD 83399 contain hydrogen,N/A
Pr-Se-O,mp-4764,"[94415, 25805]",Pr2SeO2,0,P-3m1,y,y,973,,Ar,{},{},1,,"Pr, Pr6O11, Se",,10.1002/1521-3749(200008)626:8<1709::AID-ZAAC1709>3.0.CO;2-6,2000,,TRUE
Pr-Se-O,mp-30192,[94416],Pr4Se3O4,0,Amm2,y,y,1023,0,vacuum,{},"{""step1"": {""cool rate"": [{""value"": ""5"", ""unit"": ""C/h""}], ""cool time"": [], ""cool medium"": [], ""cool type"": [], ""end temperature"": [""RT""], ""remark"": []}}",1,,"SeO2, Se, Pr",,10.1021/ic800233c,2008,,FALSE
Pr-Sn-O,mp-4394,"[84744, 82957]",Pr2Sn2O7,0,Fd-3m,y,y,1773,AP,,{},{},2,,,,10.1006/jssc.1997.7277,1997,,FALSE
Pr-Ta-O,mp-14964,[78008],Pr3TaO7,0,Cmcm,y,y,1873,AP,,{},{},1,,"Pr6O11, Tb4O7",,10.1088/0953-8984/16/23/025,2004,,FALSE
Pr-Ta-O,mp-558248,[66285],PrTa3O9,0,P2_1/m,?,?,,,,{},{},,,,chemical transport reaction,10.1002/zaac.19885650107,1988,,TRUE
Pr-Ta-O,mp-17722,[415428],PrTaO4,0,P2_1/c,y,y,1523,AP,,"{""step1"": {""grind method"": [""ball milling""], ""wet/dry"": [], ""liquid"": []}, ""step2"": {""grind method"": [""milling""], ""wet/dry"": [], ""liquid"": [""Freon-TF solvent""]}}",{},2,,"Pr2O3, Ta2O5",,10.1149/1.2119609,1983,,TRUE
Pr-Te-O,mp-16152,[92444],Pr2Te2O7,0.130282593,Fd-3m,n,n,,,,{},{},,,"Pr, TeO2, CsCl",flux,10.1002/(SICI)1521-3749(200006)626:6<1285::AID-ZAAC1285>3.0.CO;2-B,2000,,FALSE
Pr-Te-O,mp-2980,"[96264, 413655]",Pr2Te4O11,0,C2/c,y,y,993,AP,,"{""step1"": {""grind method"": [""agate mortar""], ""wet/dry"": [], ""liquid"": []}}",{},3,,"Pr6O11, TeO2",,10.1016/S0020-1693(00)84652-6,1986,excess: TeO2,FALSE
Pr-Te-O,mp-16032,[89559],Pr2TeO2,0,I4/mmm,n,n,,,,{},{},,,"TeO2, CsCl, Pr",flux,10.1002/(SICI)1521-3749(199911)625:11<1833::AID-ZAAC1833>3.0.CO;2-8,1999,,TRUE
Pr-Ti-O,mp-15201,[83847],Pr2Ti2O7,0,P2_1,y,y,1373,AP,,"{""step1"": {""grind method"": [""agate mortar""], ""wet/dry"": [], ""liquid"": []}}",{},2,,"Pr6O11, TiO2",,10.1016/j.jssc.2012.02.033,2012,,FALSE
Pr-Ti-O,mp-1195324,[195208],Pr2TiO5,0,Pnma,y,y,1823,AP,,"{""step1"": {""grind method"": [""ball milling""], ""wet/dry"": [], ""liquid"": []}}","{""step1"": {""cool rate"": [{""value"": ""300"", ""unit"": ""C/h""}], ""cool time"": [], ""cool medium"": [], ""cool type"": [], ""end temperature"": [""RT""], ""remark"": []}}",1,,"Pr2O3, TiO2",,10.1016/j.jssc.2015.03.003,2015,,FALSE
Pr-V-O,mp-1209329,[185833],PrVO3,0,Pnma,y,y,1473,0,vacuum,"{""step1"": {""grind method"": [""agate mortar""], ""wet/dry"": [], ""liquid"": []}}","{""step1"": {""cool rate"": [], ""cool time"": [], ""cool medium"": [], ""cool type"": [""slow cooling""], ""end temperature"": [""RT""], ""remark"": []}}",1,,"Pr2O3, V2O3",,10.1016/0025-5408(74)90049-X,1974,,FALSE
Pr-V-O,mp-1069346,[28927],PrVO3,0.388815707,Pm-3m,y,?,,,,{},{},,,,,10.1021/ja01633a031,1954,might be old refinement of mp-1209329,FALSE
Pr-V-O,mp-1191389,[250874],PrVO4,0.046366735,P2_1/c,y,y,,,,{},{},,,,,10.1021/ic400376g,2013,high pressure phase of mp-19169,FALSE
Pr-V-O,mp-19169,"[15611, 157327, 78076]",PrVO4,0,I4_1/amd,y,y,1373,AP,,{},{},3,,"Pr6O11, V2O5",,10.1021/ic400376g,2013,,FALSE
Pr-W-O,mp-628549,[88766],PrW5O15,0.203202065,Pmmm,y,y,1570,5,,{},{},1,,"WO3, Pr2O3",,10.1006/jssc.1999.8414,1999,,FALSE
Pr-W-O,mp-27479,[16162],Pr2W2O9,0,P2_1/c,y,y,,AP,,"{""step1"": {""grind method"": [""agate mortar""], ""wet/dry"": [], ""liquid"": []}}",{},1,,"Pr6O11, WO3",,10.1016/j.jeurceramsoc.2015.07.028,2015,,FALSE
Pr-Zr-O,mp-559426,"[429192, 150207, 249972]",Pr2Zr2O7,0,Fd-3m,y,y,1773,AP,,"{""step1"": {""grind method"": [""mixed""], ""wet/dry"": [], ""liquid"": [""ethanol""]}}",{},1,,"ZrO2, Pr2O3",,10.1006/jssc.2000.8712,2000,,FALSE
Pt-Pb-O,mp-29332,[202214],PtPb2O4,0,Pbam,y,y,993,AP,,{},{},1,,"PbO, Pt",,10.1016/0022-4596(87)90342-2,1987,,FALSE
Pt-Pb-O,mp-22048,"[82204, 59657]",Pt2PbO4,0,P-1,y,y,943,AP,,"{""step1"": {""grind method"": [""agate mortar""], ""wet/dry"": [], ""liquid"": []}}",{},1,,"PbO, Pt",,10.1006/jssc.1996.0242,1996,,FALSE
Pu-Se-O,mp-555672,[418050],PuSe2O6,0.141873521,P2_1/c,n,n,,,,{},{},,,"SeO2, PuO2, H2O",hydrothermal,10.1016/j.jssc.2007.12.020,2008,,FALSE
Pu-Te-O,mp-16785,[90383],PuTe2O6,0.19998024,P2_1/c,y,y,975,AP,,{},{},1,,"PuO2, TeO2",,10.1016/S0925-8388(00)00841-0,2000,,FALSE
Rb-Ag-O,mp-553907,[95831],Rb3AgO2,0,P2_12_12_1,y,y,723,,Ar,"{""step1"": {""grind method"": [""ball milling""], ""wet/dry"": [], ""liquid"": []}}",{},1,,"RbN3, RbNO3, Ag2O",,10.1002/1521-3749(200211)628:11<2500::AID-ZAAC2500>3.0.CO;2-L,2002,,FALSE
Rb-Ag-O,mp-1008813,[188533],RbAgO,0.543770494,F-43m,n,?,,,,{},{},,,,,10.1016/j.ssc.2012.10.016,2013,modelling of cubic phase RbAgO,FALSE
Rb-Ag-O,mp-8603,"[40155, 188526, 49753]",RbAgO,0,I4/mmm,n,n,,,,{},{},,,,reaction with wall,10.1002/zaac.19855240502,1985,,TRUE
Rb-Al-O,mp-14951,[74969],Rb3AlO3,0,C2/m,y,y,793,,,{},{},1,y,"Rb2O, RbAlO2",,10.1002/zaac.19946200522,1994,,FALSE
Rb-Al-O,mp-14070,[28373],RbAlO2,0,Fd-3m,y,y,1573,AP,,"{""step1"": {""grind method"": [""mortar""], ""wet/dry"": [], ""liquid"": []}}",{},3,,"Al2O3, Rb2CO3",,10.1134/S0020168510050171,2010,,FALSE
Rb-As-O,mp-1103058,[181904],Rb8AsO3,0.132591645,Pm-3m,?,?,,,,{},{},,,,,10.1016/j.ssc.2011.05.002,2011,modelling of Rb2(O0.75As0.25),FALSE
Rb-As-O,mp-30299,[413150],RbAsO2,0,Pbcm,y,y,773,,Ar,{},{},1,,"Rb, As2O3",,10.1515/znb-2003-0704,2003,,TRUE
Rb-Au-O,mp-4405,"[79087, 75499]",Rb3AuO,0,Pm-3m,n,n,,,,{},{},,,"Rb, Rb2O, Au",from melt,10.1039/C39940001045,1994,,FALSE
Rb-Au-O,mp-29920,[91308],Rb5Au3O2,0,Pbam,y,y,698,,Ar,"{""step1"": {""grind method"": [""pestle and mortar""], ""wet/dry"": [], ""liquid"": []}}",{},1,,"RbAu, Rb2O, Au",,10.1006/jssc.2000.8881,2000,,FALSE
Rb-Au-O,mp-510076,"[95825, 91309, 411333]",Rb7Au5O2,0,Immm,y,y,698,,Ar,"{""step1"": {""grind method"": [""pestle and mortar""], ""wet/dry"": [], ""liquid"": []}}",{},1,,"RbAu, Rb2O, Au",,10.1006/jssc.2000.8881,2000,,FALSE
Rb-Au-O,mp-10547,[409552],RbAuO,0,I4/mmm,y,y,653,,Ar,{},{},1,,"RbAu, Au, RbO2",,10.1524/ncrs.2001.216.14.516,2001,,FALSE
Rb-Au-O,mp-7472,[15116],RbAuO2,0,Cmcm,y,y,673,,O2,{},{},1,,"RbOx, Au",,10.1002/zaac.19623140103,1962,,TRUE
Rb-Bi-O,mp-556735,[95896],Rb2Bi4O7,0,C2/c,y,y,973,,protective gas,{},"{""step1"": {""cool rate"": [], ""cool time"": [], ""cool medium"": [], ""cool type"": [""furnace cool""], ""end temperature"": [""RT""], ""remark"": []}}",1,,"Rb, Bi2O3",,10.1515/znb-2002-1003,2002,,TRUE
Rb-Bi-O,mp-29525,[407294],Rb3BiO3,0,P2_13,y,y,923,,Ar,{},"{""step1"": {""cool rate"": [{""value"": ""10"", ""unit"": ""C/h""}], ""cool time"": [], ""cool medium"": [], ""cool type"": [], ""end temperature"": [""RT""], ""remark"": []}}",2,y,"Rb2.059O, Bi2O3",,10.1515/znb-1997-0902,1997,,TRUE
Rb-Bi-O,mp-1103284,[181906],Rb8BiO3,0.217015017,Pm-3m,?,?,,,,{},{},,,,,10.1016/j.ssc.2011.05.002,2011,modelling of Rb2(O0.75Bi0.25),FALSE
Rb-Bi-O,mp-29521,[407208],RbBiO2,0,C2/c,y,y,873,,Ar,{},"{""step1"": {""cool rate"": [{""value"": ""5"", ""unit"": ""C/h""}], ""cool time"": [], ""cool medium"": [], ""cool type"": [], ""end temperature"": [""RT""], ""remark"": []}}",1,y,"Rb2.059O, Bi2O3",,10.1002/(SICI)1521-3749(199802)624:2<205::AID-ZAAC205>3.0.CO;2-S,1998,,TRUE
Rb-Cd-O,mp-28364,[62054],Rb2CdO2,0,Pbcn,y,y,773,,,{},{},1,,"RbO0.49, CdO",,10.1007/BF00809217,1987,,TRUE
Rb-Co-O,mp-542299,[95833],Rb2Co2O3,0.366905516,Pnma,y,y,723,,Ar,"{""step1"": {""grind method"": [""ball milling""], ""wet/dry"": [], ""liquid"": []}}",{},1,,"RbN3, RbNO3, Co3O4",,10.1002/1521-3749(200212)628:12<2697::AID-ZAAC2697>3.0.CO;2-P,2002,,TRUE
Rb-Co-O,mp-30194,[94437],Rb3CoO2,0,Pnma,y,y,773,,Ar,"{""step1"": {""grind method"": [""ball milling""], ""wet/dry"": [], ""liquid"": []}}",{},1,,"RbN3, RbNO3, Co3O4",,10.1002/1521-3749(200109)627:9<2115::AID-ZAAC2115>3.0.CO;2-L,2001,,FALSE
Rb-Co-O,mp-541389,"[73191, 73190]",Rb5Co2O4,0,P-1,n,n,,,,{},{},,,"Rb6CdO4, Co",reaction with wall,10.1002/zaac.19936190320,1993,,TRUE
Rb-Co-O,mp-704992,[108937],RbCoO2,0.175758678,Pbca,y,y,923,,Ar,{},"{""step1"": {""cool rate"": [], ""cool time"": [], ""cool medium"": [], ""cool type"": [""slow cooling""], ""end temperature"": [""RT""], ""remark"": []}}",1,,"Co3O4, RbO1.05",,10.1002/zaac.19754170105,1975,,TRUE
Rb-Cr-O,mp-540779,[23546],Rb2Cr2O7,0.002621905,P-1,n,n,,,,{},{},,,,wet synthesis,10.1139/v70-089,1970,,FALSE
Rb-Cr-O,mp-561093,[15033],Rb2Cr2O7,0,P2_1/c,n,n,,,,{},{},,,"Rb2CO3, CrO3",wet synthesis,10.3891/acta.chem.scand.25-0044,1971,,FALSE
Rb-Cr-O,mp-17385,[15034],Rb2Cr2O7,0.001006417,C2/c,n,n,,,,{},{},,,"Rb2CO3, CrO3",wet synthesis,10.3891/acta.chem.scand.25-0035,1971,minority phase,FALSE
Rb-Cr-O,mp-557144,[409745],Rb2Cr2O7,0.006837137,P-1,n,n,,,,{},{},,,"Rb2CO3, Zn(NO3)2·6H2O, CrO3",wet synthesis,10.1524/ncrs.2003.218.4.401,2003,,FALSE
Rb-Cr-O,mp-647352,"[6130, 15060]",Rb2Cr3O10,0.02104858,Pbca,n,n,,,,{},{},,,"CrO3, Rb2Cr2O7, H2O",wet synthesis,"Chemica Scripta 5, 91 (1974)",1974,alpha phase,FALSE
Rb-Cr-O,mp-616565,"[2639, 15061]",Rb2Cr4O13,0.031104252,P2_1/c,n,n,,,,{},{},,,"CrO3, Rb2Cr2O7, H2O",wet synthesis,10.1107/S0567740873006242,1973,,FALSE
Rb-Cr-O,mp-17071,"[30224, 280457]",Rb2CrO4,0,Pnma,y,y,,,,{},{},,,,,10.1016/0022-3115(94)90309-3,1994,"beta phase; high temperature phase of alpha Rb2CrO4, which can be synthesized via solid state reaction",FALSE
Rb-Cr-O,mp-30547,"[246525, 82622]",RbCr3O8,0,C2/m,y,y,573,AP,,{},{},3,,"CrO3, Cr(NO3)3·9H2O, RbNO3",,10.1016/S0022-3697(96)00079-0,1996,,FALSE
Rb-Cr-O,mp-19029,[100521],RbCr4O8,0.064325012,I4/m,y,y,1473,7,,{},"{""step1"": {""cool rate"": [], ""cool time"": [], ""cool medium"": [], ""cool type"": [""quench""], ""end temperature"": [""RT""], ""remark"": []}}",1,,"Rb2Cr2O7, Cr2O3",,10.1016/0025-5408(78)90170-8,1978,,FALSE
Rb-Cu-O,mp-8198,[35246],Rb3Cu5O4,0,P2_1/c,?,?,723,,,{},{},1,,"RbO0.53, Cu2O",,10.1002/zaac.19824940103,1982,translation issue: might be solid state reaction or reaction with wall; uncertain phase percentage,TRUE
Rb-Cu-O,mp-28568,[65446],Rb3CuO2,0,P2_1/c,y,y,833,,,{},{},1,,"RbO0.63, Cu2O",,10.1002/zaac.655740108,1989,,TRUE
Rb-Cu-O,mp-1008807,[188530],RbCuO,0.998361353,F-43m,y,?,,,,{},{},,,,,10.1016/j.ssc.2012.10.016,2013,modelling of cubic RbCuO,FALSE
Rb-Cu-O,mp-7470,"[15100, 40159]",RbCuO,0,I4/mmm,y,y,673,,Ar,{},{},1,,"Rb2O, Cu2O",,10.1002/zaac.19693670509,1969,,TRUE
Rb-Cu-O,mp-7467,[15096],RbCuO2,0,Cmcm,y,y,675,,Ar,"{""step1"": {""grind method"": [""mixed""], ""wet/dry"": [], ""liquid"": [""ethanol""]}}",{},1,,"Rb2O, CuO",,10.1016/0040-6031(95)02575-8,1995,,FALSE
Rb-Dy-O,mp-7476,[15159],RbDyO2,0,R-3m,y,y,823,,Ar,{},{},2,,"RbO0.6, Yb2O3",,10.1002/zaac.19693650104,1969,,TRUE
Rb-Er-O,mp-7477,[15161],RbErO2,0,R-3m,y,y,823,,Ar,{},{},2,,"RbO0.6, Yb2O3",,10.1002/zaac.19693650104,1969,,TRUE
Rb-Eu-O,mp-20277,[27334],RbEuO2,0,R-3m,y,y,873,,Ar,{},"{""step1"": {""cool rate"": [], ""cool time"": [], ""cool medium"": [], ""cool type"": [""quench""], ""end temperature"": [""RT""], ""remark"": []}}",2,,"RbO0.53, Eu2O3",,10.1002/zaac.19754170305,1975,,TRUE
Rb-Fe-O,mp-555287,[154371],Rb3FeO3,0,C2/m,y,y,975,,Ar,{},"{""step1"": {""cool rate"": [], ""cool time"": [], ""cool medium"": [], ""cool type"": [""furnace cool""], ""end temperature"": [""RT""], ""remark"": []}}",1,,"Fe2O3, Rb, RbO2",,10.1515/znb-2005-0706,2005,,TRUE
Rb-Fe-O,mp-559809,[154291],Rb4Fe2O5,0.580762521,C2/c,y,y,773,,Ar,{},"{""step1"": {""cool rate"": [], ""cool time"": [{""value"": ""50"", ""unit"": ""h""}], ""cool medium"": [], ""cool type"": [], ""end temperature"": [{""value"": ""400"", ""unit"": ""C""}], ""remark"": []}, ""step2"": {""cool rate"": [{""value"": ""100"", ""unit"": ""C/h""}], ""cool time"": [], ""cool medium"": [], ""cool type"": [], ""end temperature"": [""RT""], ""remark"": []}}",1,,"Fe2O3, Rb, RbO2",,10.1524/zkri.220.2.135.59131,2005,excess Rb,FALSE
Rb-Fe-O,mp-1193332,[174319],Rb5Fe3O6,0,I-42d,y,y,875,,Ar,{},"{""step1"": {""cool rate"": [{""value"": ""100"", ""unit"": ""C/h""}], ""cool time"": [], ""cool medium"": [], ""cool type"": [], ""end temperature"": [""RT""], ""remark"": []}}",1,,"Fe2O3, Rb, RbO2",,10.1515/znb-2004-0705,2004,,TRUE
Rb-Fe-O,mp-31512,[414485],Rb7Fe2O8,0,P2_1/c,y,y,773,,Ar,{},"{""step1"": {""cool rate"": [{""value"": ""100"", ""unit"": ""C/h""}], ""cool time"": [], ""cool medium"": [], ""cool type"": [], ""end temperature"": [""RT""], ""remark"": []}}",1,,"Fe2O3, Rb, RbO2",,10.1002/zaac.200400366,2005,,TRUE
Rb-Fe-O,mp-561139,"[174314, 154370]",Rb8Fe2O7,0.394532545,P2_1/c,y,y,775,,Ar,{},{},1,,"Fe2O3, Rb, RbO2",,10.1515/znb-2005-0706,2005,inhomogeneous,TRUE
Rb-Fe-O,mp-558337,"[180531, 241113, 421187]",RbFeO2,0.030751394,Pbca,y,y,793,,Ar,"{""step1"": {""grind method"": [""agate mortar""], ""wet/dry"": [], ""liquid"": []}}","{""step1"": {""cool rate"": [{""value"": ""5"", ""unit"": ""C/h""}], ""cool time"": [], ""cool medium"": [], ""cool type"": [], ""end temperature"": [{""value"": ""400"", ""unit"": ""C""}], ""remark"": []}, ""step2"": {""cool rate"": [{""value"": ""100"", ""unit"": ""C/h""}], ""cool time"": [], ""cool medium"": [], ""cool type"": [], ""end temperature"": [""RT""], ""remark"": []}}",1,,"Fe2O3, RbN3, RbNO3",,10.1016/j.jssc.2010.01.022,2010,,FALSE
Rb-Ga-O,mp-13744,[2270],Rb3GaO3,0,C2/m,y,y,923,,,{},{},1,,"Ga2O3, RbO0.46",,10.1002/zaac.19784400108,1978,,TRUE
Rb-Ga-O,mp-1020613,[420328],Rb5GaO4,0,Pbca,y,y,573,,Ar,{},"{""step1"": {""cool rate"": [{""value"": ""10"", ""unit"": ""C/h""}], ""cool time"": [], ""cool medium"": [], ""cool type"": [], ""end temperature"": [{""value"": ""200"", ""unit"": ""C""}], ""remark"": []}, ""step2"": {""cool rate"": [], ""cool time"": [], ""cool medium"": [], ""cool type"": [""furnace cool""], ""end temperature"": [""RT""], ""remark"": []}}",1,,"Rb2O, Rb, Ga2O3",,10.1515/znb-2010-1202,2010,,FALSE
Rb-Gd-O,mp-7976,[27335],RbGdO2,0,R-3m,y,y,873,,Ar,{},"{""step1"": {""cool rate"": [], ""cool time"": [], ""cool medium"": [], ""cool type"": [""quench""], ""end temperature"": [""RT""], ""remark"": []}}",2,,"RbO0.53, Gd2O3",,10.1002/zaac.19754170305,1975,,TRUE
Rb-Ge-O,mp-557372,[189271],Rb2Ge4O9,0,P-3c1,y,y,1073,AP,,"{""step1"": {""grind method"": [""agate mortar""], ""wet/dry"": [], ""liquid"": [""acetone""]}}",{},2,,"GeO2, Rb2CO3",,10.1016/j.jlumin.2016.04.046,2016,,FALSE
Rb-Ge-O,mp-556051,[412138],Rb2GeO3,0,P2_1/c,?,?,1073,,,{},{},1,,"Rb, RbO2, GeO2",,10.1515/znb-2001-1201,2001,uncertain phase percentage,TRUE
Rb-Ge-O,mp-18464,[412136],Rb4GeO4,0,P2_1/c,y,y,923,,,{},"{""step1"": {""cool rate"": [{""value"": ""5"", ""unit"": ""C/h""}], ""cool time"": [], ""cool medium"": [], ""cool type"": [], ""end temperature"": [{""value"": ""300"", ""unit"": ""C""}], ""remark"": []}, ""step2"": {""cool rate"": [{""value"": ""100"", ""unit"": ""C/h""}], ""cool time"": [], ""cool medium"": [], ""cool type"": [], ""end temperature"": [""RT""], ""remark"": []}}",1,,"Rb, RbO2, GeO2",,10.1515/znb-2001-1201,2001,,TRUE
Rb-Ge-O,mp-18224,[73551],Rb6Ge2O7,0,P2_1/c,y,y,623,0.55,NH3,{},{},1,,"RbNH2, GeO2",,10.1016/0925-8388(93)90496-A,1993,,FALSE
Rb-Hg-O,mp-5072,"[25514, 66276]",Rb2HgO2,0,I4/mmm,y,y,823,,Ar,{},{},1,,"RbO0.6, HgO",,10.1002/zaac.19885670108,1988,,TRUE
Rb-Ho-O,mp-6978,[15160],RbHoO2,0,R-3m,y,y,823,,Ar,{},{},2,,"RbO0.6, Yb2O3",,10.1002/zaac.19693650104,1969,,TRUE
Rb-La-O,mp-7972,[27331],RbLaO2,0,R-3m,y,y,873,,Ar,{},"{""step1"": {""cool rate"": [], ""cool time"": [], ""cool medium"": [], ""cool type"": [""quench""], ""end temperature"": [""RT""], ""remark"": []}}",2,,"RbO0.53, Gd2O3",,10.1002/zaac.19754170305,1975,,TRUE
Rb-Li-O,mp-1095542,[65149],RbLi2O3,0.394692467,P2_1/m,?,?,,,,{},{},,,,,,,ICSD 65149 contain hydrogen,N/A
Rb-Li-O,mp-28545,[65170],RbLiO,0.001270121,Pnma,y,y,773,,,{},{},1,,"Li2O, Rb2O",,10.1002/zaac.19875531027,1987,,TRUE
Rb-Lu-O,mp-7480,[15164],RbLuO2,0,R-3m,y,y,823,,Ar,{},{},2,,"RbO0.6, Yb2O3",,10.1002/zaac.19693650104,1969,,TRUE
Rb-Mn-O,mp-1201493,[420662],Rb11Mn8O16,0.007107718,F222,y,y,773,,Ar,"{""step1"": {""grind method"": [""agate mortar""], ""wet/dry"": [], ""liquid"": []}}",{},1,,"RbNO3, Mn2O3, RbN3",,10.1002/zaac.200900269,2009,,FALSE
Rb-Mn-O,mp-505209,[79083],Rb2MnO4,0,Pnma,n,n,,,,{},{},,,"RbO0.9, LiMnO4",ion exchange,10.1002/zaac.19956210202,1995,,FALSE