system,mp_id,icsd_ids,composition,e_above_hull,Spacegroup Number,solid_state_synthesized_composition,solid_state_synthesized_structure,sss_highest_temperature(K),sss_pressure(GPa),sss_atmosphere,sss_mixing_condition,sss_cooling_condition,sss_heating_step,single_crystal,sss_precursor,other_synthesis_method,reference,reference_year,comment,google_translate
La-Al-O,mp-1080060,[180417],LaAlO3,0.000625742,Imma,y,?,,,,{},{},,,,,10.1103/PhysRevB.82.195402,2010,modelling of biaxial strained LaAlO3,FALSE
La-Al-O,mp-1080080,"[180416, 180418]",LaAlO3,0.000904127,I4/mcm,y,?,,,,{},{},,,,,10.1103/PhysRevB.82.195402,2010,modelling of biaxial strained LaAlO3,FALSE
La-As-O,mp-1079050,[423416],LaAsO3,0,P2_1/m,y,y,1273,11.5,,{},"{""step1"": {""cool rate"": [], ""cool time"": [{""value"": ""150"", ""unit"": ""min""}], ""cool medium"": [], ""cool type"": [], ""end temperature"": [{""value"": ""500"", ""unit"": ""C""}], ""remark"": []}, ""step2"": {""cool rate"": [], ""cool time"": [], ""cool medium"": [], ""cool type"": [""furnace cool""], ""end temperature"": [""RT""], ""remark"": []}}",1,,"La2O3, As2O3",,10.1002/zaac.201100552,2012,,FALSE
La-As-O,mp-4917,"[155917, 415338]",LaAsO4,0.005808895,P2_1/c,y,y,973,,"vacuum,air",{},{},4,,"La2O3, As2O5",,10.1002/zaac.200400544,2005,,TRUE
La-As-O,mp-1095309,[430619],LaAsO4,0.0158061,I4_1/a,y,y,,,,{},{},,,,,10.1515/znb-2015-0210,2016,high temperature/pressure phase of mp-4917,FALSE
La-Au-O,mp-9160,[74989],La4Au2O9,0,Pbcn,y,y,873,0.07,O2,{},"{""step1"": {""cool rate"": [], ""cool time"": [{""value"": ""12"", ""unit"": ""hour""}], ""cool medium"": [], ""cool type"": [], ""end temperature"": [""RT""], ""remark"": []}}",1,,"KOH, Au2O3·2H2O, La(OH)3",,10.1016/0925-8388(94)90707-2,1994,KOH as mineralizer,TRUE
La-Au-O,mp-28853,[73873],LaAuO3,0,Pbcm,y,y,873,0.2,O2,{},"{""step1"": {""cool rate"": [], ""cool time"": [{""value"": ""12"", ""unit"": ""hour""}], ""cool medium"": [], ""cool type"": [], ""end temperature"": [""RT""], ""remark"": []}}",1,,"KOH, Au2O3·xH2O, La(OH)3",,10.1006/jssc.1993.1228,1993,KOH as mineralizer,FALSE
La-Be-O,mp-28072,[36063],La2Be2O5,0.039470081,C2/c,y,y,1573,,,{},{},1,,"BeO, La2O3",,10.6028/jres.064A.008,1960,,FALSE
La-Bi-O,mp-1070601,[422645],La2BiO2,0,I4/mmm,y,y,1273,0,vacuum,{},{},3,,"Bi, La, La2O3",,10.1021/ja111015p,2011,inhomogeneous,FALSE
La-Co-O,mp-505669,[51198],La2Co2O5,0.309293116,Pnma,n,n,,,,{},{},,,LaCoO3,reduction,10.1006/jssc.1998.7963,1998,,FALSE
La-Co-O,mp-27494,[16404],La2CoO4,0.04842173,Cmce,y,y,1473,,"N2,air,Ar/H2",{},{},2,,"CoO, La2O3",,10.1016/0038-1098(94)90264-X,1994,,FALSE
La-Co-O,mp-29203,[86176],La3Co3O8,0.22247242,P2_1,n,n,,,,{},{},,,LaCoO3,reduction,10.1039/A801796D,1998,,FALSE
La-Co-O,mp-19196,"[85592, 51178, 85593, 51177]",La4Co3O10,0.090214065,I4/mmm,y,?,,,,{},{},,,,,10.1039/A908432K,2000,old refinement of mp-1203869,FALSE
La-Co-O,mp-1203869,[290795],La4Co3O10,0.025603428,P2_1/c,y,y,1423,,Ar,"{""step1"": {""grind method"": [""ball milling""], ""wet/dry"": [], ""liquid"": [""isopropanol""]}}",{},2,,"La2O3, Co3O4",,10.1149/2.0811609jes,2016,,FALSE
La-Co-O,mp-622353,[86177],La4Co3O9,0.062793584,Pnma,n,n,,,,{},{},,,La4Co3O10,reduction,10.1039/A801798K,1998,,FALSE
La-Co-O,mp-1185232,[164459],LaCoO3,0.047486723,Pnma,y,?,,,,{},{},,,,,10.1088/0953-8984/17/10/015,2005,different stoichiometry,FALSE
La-Co-O,mp-510611,[161383],LaCoO3,1.442327122,Pm-3m,y,?,,,,{},{},,,,,10.1103/PhysRevB.77.155124,2007,modelling of cubic LaCoO3,FALSE
La-Co-O,mp-573180,[28921],LaCoO3,0.076548746,Pm-3m,y,?,,,,{},{},,,,,10.1021/ja01633a031,1954,other refinement of mp-19051,FALSE
La-Co-O,mp-19051,"[201763, 99369, 180176, 164900, 189375, 201764, 167257, 201762, 201766, 190095, 156452, 236314, 201767]",LaCoO3,0.00345814,R-3c,y,y,1773,AP,,{},"{""step1"": {""cool rate"": [], ""cool time"": [], ""cool medium"": [], ""cool type"": [""furnace cool""], ""end temperature"": [""RT""], ""remark"": []}}",3,,,,10.1088/0953-8984/17/10/015,2005,,FALSE
La-Co-O,mp-1180725,[247225],LaCoO3,0.051668171,C2/c,y,?,,,,{},{},,,,,,,same ICSD as mp-1277476,N/A
La-Co-O,mp-1296711,[201765],LaCoO3,0,R-3,y,?,,,,{},{},,,,,10.1016/0022-4596(86)90035-6,1986,other refinement of mp-19051 at high temperature,FALSE
La-Co-O,mp-1277476,"[99370, 247225]",LaCoO3,0.034876529,P-1,y,?,,,,{},{},,,,,10.1016/j.jssc.2003.10.004,2004,other refinement of mp-19051,FALSE
La-Cr-O,mp-556104,[249659],La2CrO6,0,C2/c,y,y,1055,0.000083,O2,{},{},1,,"La2O3, Cr2O3",,10.1007/s11669-008-9463-0,2008,,FALSE
La-Cr-O,mp-18841,"[91271, 41061, 59595, 29120, 28930]",LaCrO3,0.091459146,Pm-3m,y,?,,,,{},{},,,,,10.1016/S0022-4596(05)80231-2,1992,might be high temperature phase or other refinement of mp-19281,FALSE
La-Cr-O,mp-19281,"[194033, 91270, 89098, 153615, 160073, 237354, 180177, 166837, 9938, 100185, 151219, 51191, 79344, 81984, 108900, 160076, 160077, 251092, 167588, 160078, 50755, 180183, 180184, 165054, 173469, 251091]",LaCrO3,0,Pnma,y,y,1573,AP,,"{""step1"": {""grind method"": [""mixed""], ""wet/dry"": [], ""liquid"": [""ethanol""]}, ""step2"": {""grind method"": [""agate mortar""], ""wet/dry"": [], ""liquid"": []}}",{},4,,"La2O3, Cr2O3",,10.1016/j.jallcom.2007.03.069,2008,,FALSE
La-Cr-O,mp-19357,[167590],LaCrO3,0.007426481,R-3c,y,y,,,,{},{},,,,,10.1021/cm100609e,2010,high temperature phase of mp-19281,FALSE
La-Cr-O,mp-18456,[81938],LaCrO4,0.002782047,P2_1/c,n,n,,,,{},{},,,La[Cr(C204)3]·9H2O,decomposition,10.1107/S0021889882011455,1982,,FALSE
La-Cu-O,mp-5696,"[82388, 73399, 77943, 82139, 82389]",La2Cu2O5,0.051205832,Pbam,y,y,,,,{},{},,,La2Cu2O5,,10.1107/S0108270196006646,1996,high temperature/pressure phase of mp-654033,FALSE
La-Cu-O,mp-654033,"[80600, 71061]",La2Cu2O5,0.062109474,C2/c,y,y,1285,AP,,{},{},1,,"LaCuOx, CuO",,10.1016/0022-4596(91)90230-F,1991,,FALSE
La-Cu-O,mp-1180676,"[75891, 73908]",La2CuO4,0.069697259,Cmce,y,?,,,,{},{},,,,,10.1016/0921-4534(94)91645-4,1994,might be other refinement or off-stoichiometric compound,FALSE
La-Cu-O,mp-36480,"[69312, 78295, 78289, 41499, 78237, 89173, 78288, 78194, 173891, 78292, 261661, 78297, 78296, 69311, 73906, 87969, 78299, 78300, 78291, 50265, 173893, 78298, 73907, 78294, 78290, 72237, 1076, 67837, 78293, 173895, 78287, 186588, 74145]",La2CuO4,0.057868551,Cmce,y,y,1473,AP,,{},{},1,,"La2O3, CuO",,10.1016/S0022-4596(73)80010-6,1973,T phase,FALSE
La-Cu-O,mp-19735,"[73913, 56528, 19003, 73911, 173894, 68381, 73910, 67836, 173892, 73909, 81152, 41643, 73912, 74150]",La2CuO4,0.071303939,I4/mmm,y,?,,,,{},{},,,,,,,might be other refinement of mp-1077929,N/A
La-Cu-O,mp-1077929,"[180586, 261659, 261660, 421550]",La2CuO4,0,I4/mmm,y,n,,,,{},{},,,,flux,10.1103/PhysRevB.82.180508,2010,other phase of mp-36480; T' phase,FALSE
La-Cu-O,mp-1181551,"[51339, 55084]",La8Cu7O19,0.067683615,C2/c,y,y,1288,AP,,"{""step1"": {""grind method"": [""agate mortar""], ""wet/dry"": [], ""liquid"": []}}","{""step1"": {""cool rate"": [], ""cool time"": [], ""cool medium"": [], ""cool type"": [""quench""], ""end temperature"": [""RT""], ""remark"": []}}",1,,"La2O3, CuO",,10.1002/zaac.200300424,2004,,FALSE
La-Cu-O,mp-20072,[18102],LaCuO2,0,R-3m,y,y,1325,0,vacuum,{},"{""step1"": {""cool rate"": [], ""cool time"": [], ""cool medium"": [""water""], ""cool type"": [""quench""], ""end temperature"": [""RT""], ""remark"": []}}",1,,"Cu2O, La2O3",,10.1016/0022-5088(89)90048-9,1989,,FALSE
La-Cu-O,mp-3474,"[73554, 9428]",LaCuO3,0,R-3c,y,y,1173,,,{},{},1,,"La2CuO4, CuO",,10.1016/0025-5408(72)90080-3,1972,inhomogeneous,TRUE
La-Er-O,mp-7538,[16237],LaErO3,0.026980733,Pnma,y,y,1723,AP,,"{""step1"": {""grind method"": [""agate mortar""], ""wet/dry"": [], ""liquid"": []}}",{},1,,"La2O3, Er2O3",,10.1016/j.jssc.2015.03.026,2015,,FALSE
La-Fe-O,mp-1180667,[421426],La3FeO6,0.212924305,Cmc2_1,n,n,,,,{},{},,,"La2O3, KOH, Fe2O3, Sr(OH)2",from melt,10.1016/j.solidstatesciences.2010.03.010,2010,,FALSE
La-Fe-O,mp-574915,[155493],LaFe12O19,0.088456848,P6_3/mmc,y,y,1663,,dry air,"{""step1"": {""grind method"": [""agate mortar""], ""wet/dry"": [], ""liquid"": []}}","{""step1"": {""cool rate"": [], ""cool time"": [], ""cool medium"": [], ""cool type"": [""quench""], ""end temperature"": [""RT""], ""remark"": []}}",1,,"Fe2O3, La2O3",,10.1016/j.mseb.2011.01.012,2011,,FALSE
La-Fe-O,mp-572788,[155494],LaFe12O19,0.713350868,Cmcm,y,y,,,,{},{},,,,,10.1103/PhysRevB.73.144408,2006,low temperature phase of mp-574915,FALSE
La-Fe-O,mp-1078634,"[236170, 236174, 236178, 236169, 236177, 236176, 236179, 236171, 236172, 236175, 236173]",LaFeO3,0,R-3c,y,y,,,,{},{},,,,,10.1016/j.jssc.2012.06.023,2012,high temperature phase of mp-22590,FALSE
La-Fe-O,mp-552676,"[29234, 29118]",LaFeO3,0.130406818,Pm-3m,y,?,,,,{},{},,,,,10.1016/0022-3697(57)90095-1,1957,other refinement of mp-22590,FALSE
La-Fe-O,mp-22590,"[195543, 194609, 84941, 236166, 236159, 236154, 184304, 236167, 28255, 153536, 236155, 236157, 158825, 236161, 166178, 93611, 236153, 180178, 236163, 236165, 78062, 236158, 236168, 164083, 236162, 160736, 236160, 236164, 236156]",LaFeO3,0.02777093,Pnma,y,y,1623,AP,,{},{},1,,"Fe2O3, La2O3",,10.1016/j.jssc.2012.06.023,2012,,FALSE
La-Ga-O,mp-769915,[261173],La4Ga2O9,0,P2_1/c,y,y,1573,AP,,"{""step1"": {""grind method"": [""agate mortar""], ""wet/dry"": [], ""liquid"": [""acetone""]}}","{""step1"": {""cool rate"": [], ""cool time"": [], ""cool medium"": [], ""cool type"": [], ""end temperature"": [""RT""], ""remark"": []}}",1,,"La2O3, Ga2O3",,10.1107/S010876810902833X,2009,,FALSE
La-Ga-O,mp-9831,[76047],LaGaO3,1.471357604,Pm-3m,y,?,,,,{},{},,,,,"Atti della Accademia Nazionale dei Lincei, Classe di Scienze Fisiche, Matematiche e Naturali, Rendiconti 17, 48 (1954)",1954,might be old refinement of mp-5837,FALSE
La-Ga-O,mp-1097026,[79662],LaGaO3,0.096294524,Pm-3m,y,?,,,,{},{},,,,,www.scientific.net/MSF.166-169.795,1994,other refinement of mp-5837; different crystal system from original paper,FALSE
La-Ga-O,mp-5837,"[73760, 51285, 88259, 160235, 160234, 153307, 98410, 88146, 160233, 91786, 94299, 73759, 161782, 50388, 41280, 88349, 98168, 73761]",LaGaO3,0.03251986,Pnma,y,y,1773,AP,,"{""step1"": {""grind method"": [""ball milling""], ""wet/dry"": [], ""liquid"": []}}",{},2,,"La2O3, Fe2O3",,10.1006/jssc.1998.7821,1998,,FALSE
La-Ga-O,mp-3336,"[182543, 153308, 160268, 182540, 153309, 182542, 160270, 88351, 153310, 160265, 51286, 160266, 182541, 160269, 51287, 83349, 88350, 160267]",LaGaO3,0.038041495,R-3c,y,y,,,,{},{},,,,,10.1016/j.jssc.2007.09.019,2007,high pressure phase of mp-5837,FALSE
La-Ga-O,mp-1078871,"[51039, 73764, 51038, 73763, 51037, 51036, 73762]",LaGaO3,0.038565815,R3c,y,y,,,,{},{},,,,,10.1006/jssc.1998.7821,1998,high temperature phase of mp-5837,FALSE
La-Ga-O,mp-556983,"[51285, 88259, 160235, 160234, 153307, 98410, 88146, 160233, 91786, 94299, 73759, 161782, 50388, 41280, 88349, 98168, 73761]",LaGaO3,0.037555216,Imma,y,?,,,,{},{},,,,,,,same ICSD as mp-5837,N/A
La-Ge-O,mp-621945,[202606],La2Ge2O7,0.002676305,P1,n,n,,,,{},{},,,"GeO2, La2O3",from melt,10.1016/0022-4596(88)90112-0,1988,,TRUE
La-Ge-O,mp-21532,[20623],La2Ge2O7,0,P-1,n,n,,,,{},{},,,,,10.1016/0022-4596(88)90112-0,1988,other phase of mp-621945,FALSE
La-Ge-O,mp-703350,[83341],La2Ge3O9,0.005384778,P-1,n,n,,,,{},{},,,"LaCl3, GeO2",hydrothermal,10.1524/zkri.1996.211.1.4,1996,,TRUE
La-Ge-O,mp-638261,[59727],La2GeO5,0,P2_1/c,y,y,1848,AP,,{},{},3,,"La2O3, GeO2",,10.1006/jssc.2002.9724,2002,,FALSE
La-Hf-O,mp-12533,"[153815, 236209]",La2Hf2O7,0,Fd-3m,y,?,,,,{},{},,,,,10.1016/j.solidstatesciences.2012.08.003,2012,modelling of mp-554235,FALSE
La-Hf-O,mp-554235,[173790],La2Hf2O7,0.447976245,Fd-3m,y,y,1873,AP,,"{""step1"": {""grind method"": [""ball milling""], ""wet/dry"": [], ""liquid"": [""acetone""]}}",{},3,,"La2O3, HfO2",,10.1016/j.jssc.2008.11.008,2009,,FALSE
La-Ho-O,mp-756166,"[196469, 196470, 189422, 189420]",LaHoO3,0.033620971,Pnma,y,y,1573,,H2,{},{},1,,"Ho2O3, La2O3",,10.1016/0022-4596(75)90090-0,1975,,FALSE
La-In-O,mp-11623,"[193481, 281549]",LaInO3,0.005777037,Pnma,y,y,1723,AP,,"{""step1"": {""grind method"": [""ball milling""], ""wet/dry"": [], ""liquid"": [""ethanol""]}}",{},2,,"La2O3, In2O3",,10.1107/S0108270103024806,2003,,FALSE
La-Ir-O,mp-9612,[200472],La3Ir3O11,0,Pn-3,y,y,1173,0,vacuum,{},{},1,,"KClO4, La2O3, IrO2",,10.1016/0022-5088(79)90255-8,1979,,TRUE
La-Ir-O,mp-1198098,[181573],La3IrO7,0.021000318,P2_1/c,y,?,,,,{},{},,,,,10.1007/s10870-010-9908-2,2011,B phase; other phase of mp-1191066; minority phase; 10.1002/aenm.202003561 synthesized La3IrO7 but the structural characterization is questionable,FALSE
La-Ir-O,mp-1191066,[181572],La3IrO7,0,Cmcm,y,?,,,,{},{},,,,,10.1007/s10870-010-9908-2,2011,A phase; inhomogeneous; 10.1002/aenm.202003561 synthesized La3IrO7 but the structural characterization is questionable,FALSE
La-Lu-O,mp-22220,[51449],LaLuO3,0.010578967,Pnma,y,y,1823,AP,,"{""step1"": {""grind method"": [""ball milling""], ""wet/dry"": [], ""liquid"": [""deionized water""]}}","{""step1"": {""cool rate"": [{""value"": ""150"", ""unit"": ""C/h""}], ""cool time"": [], ""cool medium"": [], ""cool type"": [], ""end temperature"": [{""value"": ""800"", ""unit"": ""C""}], ""remark"": []}, ""step2"": {""cool rate"": [], ""cool time"": [], ""cool medium"": [], ""cool type"": [""furnace cool""], ""end temperature"": [""RT""], ""remark"": []}}",4,,"La2O3, Lu2O3",,10.1111/j.1551-2916.2010.03930.x,2010,,FALSE
La-Mn-O,mp-21444,"[84668, 84350]",LaMn2O5,0.092036933,Pbam,n,n,,,,{},{},,,"La2O3, Mn(NO3)2·4H2O, citric acid",citrate technique,10.1006/jssc.1996.7237,1997,,FALSE
La-Mn-O,mp-1189182,"[260415, 164178, 164177]",LaMn7O12,0.064414454,C2/m,y,y,1473,5,,{},{},1,,"La2O3, Mn2O3",,10.1016/j.solidstatesciences.2009.03.012,2009,,FALSE
La-Mn-O,mp-17554,"[182576, 82226, 82228, 161929, 50335, 168694, 90424, 161928, 182575, 167070, 88388, 82227, 83761, 91175, 16280, 185279, 50336, 162002, 50334, 56616, 51653, 16281]",LaMnO3,0.119888401,Pnma,y,y,1673,,"CO2,H2",{},"{""step1"": {""cool rate"": [], ""cool time"": [], ""cool medium"": [], ""cool type"": [""quench""], ""end temperature"": [""RT""], ""remark"": []}}",1,,"La2O3, MnC2O4·2H2O",,10.1143/JPSJ.29.606,1970,ICSD 182575 not fonud,FALSE
La-Mn-O,mp-19157,"[150258, 150260, 54919]",LaMnO3,0.132483169,C2/c,y,?,,,,{},{},,,,,10.1006/jssc.2001.9440,2002,other phase of mp-17554; thin film; off-stoichiometric,FALSE
La-Mn-O,mp-19168,"[55965, 167068, 167064, 55968, 155545, 80370, 55967, 180179, 164470, 188402, 55972, 96038, 162001, 55966, 55969, 161927, 90355, 167063, 55973, 167061, 167066, 167062, 167067, 167065, 55971, 154049, 55953, 167069, 55970]",LaMnO3,0.13502657,R-3c,y,y,,,,{},{},,,,,10.1103/PhysRevB.57.R3189,1997,high temperature phase of mp-17554,FALSE
La-Mn-O,mp-1205375,"[29119, 188401, 150259, 180180]",LaMnO3,0.162472163,P4/mbm,y,?,,,,{},{},,,,,10.1016/j.materresbull.2010.11.010,2011,might be other refinement of mp-17554,FALSE
La-Mn-O,mp-19025,"[188401, 150259]",LaMnO3,0.20113791,Pm-3m,y,?,,,,{},{},,,,mechanochemical,10.1016/j.jssc.2012.01.018,2012,same ICSD as mp-1205375,FALSE
La-Mo-O,mp-1197618,[165628],La16Mo21O56,0.132059845,P2_1/c,y,y,1873,,Ar,{},"{""step1"": {""cool rate"": [{""value"": ""100"", ""unit"": ""C/h""}], ""cool time"": [], ""cool medium"": [], ""cool type"": [], ""end temperature"": [{""value"": ""1100"", ""unit"": ""C""}], ""remark"": []}, ""step2"": {""cool rate"": [], ""cool time"": [], ""cool medium"": [], ""cool type"": [""furnace cool""], ""end temperature"": [""RT""], ""remark"": []}}",1,,"La2O3, Mo, MoO3",,10.1021/ic981234a,1999,,FALSE
La-Mo-O,mp-554402,[2634],La2Mo3O12,0,C2/c,y,y,1023,AP,,{},{},2,,"La2O3, MoO3",,10.1016/j.ceramint.2012.05.006,2012,,FALSE
La-Mo-O,mp-29581,[202189],La2Mo2O7,0.095805866,Pnnm,n,n,,,,{},{},,,"Na2MoO4, MoO3, La2O3",electrolysis,10.1016/0022-4596(87)90228-3,1987,,FALSE
La-Mo-O,mp-30163,[93722],La2Mo4O15,0.007590341,P2_1/c,y,y,873,AP,,"{""step1"": {""grind method"": [""agate mortar""], ""wet/dry"": [], ""liquid"": []}}",{},1,,"La2O3, MoO3",,10.1006/jssc.2001.9190,2001,,FALSE
La-Mo-O,mp-1198351,[413030],La2Mo4O15,0.014967618,P2_1/c,y,n,,,,{},{},,,,pyrolysis,10.1016/S0022-4596(03)00131-2,2003,other phase of mp-30163,FALSE
La-Mo-O,mp-1105399,[251684],La2MoO5,0.087531157,I4/m,y,n,,,,{},{},,,La2MoO6,reduction,10.1021/ja511218g,2014,"other phase of cubic La2MoO5, which can be synthesized via solid state synthesis: 10.1016/0038-1098(95)00209-X",FALSE
La-Mo-O,mp-19300,"[251685, 79807, 68228]",La2MoO6,0,I4_1/acd,y,y,1523,,,{},"{""step1"": {""cool rate"": [], ""cool time"": [], ""cool medium"": [], ""cool type"": [""furnace cool""], ""end temperature"": [""RT""], ""remark"": []}}",1,,"La2O3, MoO3",,10.1021/cm00050a015,1995,,FALSE
La-Mo-O,mp-546007,[25611],La2MoO6,0.060055156,I-42m,y,?,,,,{},{},,,,,10.1021/cm00050a015,1995,old refinement of mp-19300,FALSE
La-Mo-O,mp-1203257,[247567],La3MoO7,0.052706711,Pnma,y,y,,,,{},{},,,,,10.1016/j.jssc.2010.09.005,2010,high temperature phase of mp-29150,FALSE
La-Mo-O,mp-29150,"[247566, 84708]",La3MoO7,0,P2_12_12_1,y,y,1473,0,vacuum,"{""step1"": {""grind method"": [""agate mortar""], ""wet/dry"": [], ""liquid"": []}}",{},1,,"La2O3, MoO2, MoO3",,10.1016/j.jssc.2010.09.005,2010,,FALSE
La-Mo-O,mp-14748,[67483],La4Mo2O11,0.07645129,P4_2/n,y,y,1980,,,{},"{""step1"": {""cool rate"": [{""value"": ""100"", ""unit"": ""C/h""}], ""cool time"": [], ""cool medium"": [], ""cool type"": [], ""end temperature"": [{""value"": ""1300"", ""unit"": ""K""}], ""remark"": []}, ""step2"": {""cool rate"": [], ""cool time"": [], ""cool medium"": [], ""cool type"": [""furnace cool""], ""end temperature"": [""RT""], ""remark"": []}}",1,y,"La2O3, MoO3, Mo",,10.1107/S0108270192003214,1992,,FALSE
La-Mo-O,mp-647867,[260424],La4Mo7O27,0.005554905,Pca2_1,n,n,,,,{},{},,,"La2O3, H3BO3, MoO3",flux,10.1107/S1600536809026415,2009,,FALSE
La-Mo-O,mp-654080,[67963],La5Mo32O54,0.201688599,P2_1/c,y,y,2273,,,{},"{""step1"": {""cool rate"": [{""value"": ""100"", ""unit"": ""C/h""}], ""cool time"": [], ""cool medium"": [], ""cool type"": [], ""end temperature"": [{""value"": ""1300"", ""unit"": ""K""}], ""remark"": []}, ""step2"": {""cool rate"": [], ""cool time"": [], ""cool medium"": [], ""cool type"": [""furnace cool""], ""end temperature"": [""RT""], ""remark"": []}}",1,y,"La2O3, MoO3, Mo",,10.1107/S0108270193001532,1993,,FALSE
La-Mo-O,mp-705132,[170710],La5Mo6O21,0.064130138,P2_12_12_1,y,y,2223,,Ar,{},"{""step1"": {""cool rate"": [{""value"": ""100"", ""unit"": ""C/h""}], ""cool time"": [], ""cool medium"": [], ""cool type"": [], ""end temperature"": [{""value"": ""1373"", ""unit"": ""K""}], ""remark"": []}, ""step2"": {""cool rate"": [], ""cool time"": [], ""cool medium"": [], ""cool type"": [""furnace cool""], ""end temperature"": [""RT""], ""remark"": []}}",1,y,"La2O3, MoO3, Mo",,10.1107/S0108270105015386,2005,,FALSE
La-Mo-O,mp-31128,[99589],La6Mo8O33,0.001091363,P2_1,y,y,1073,AP,,"{""step1"": {""grind method"": [""agate mortar""], ""wet/dry"": [], ""liquid"": []}}",{},1,,"La2O3, MoO3",,10.1016/j.jssc.2004.03.016,2004,inhomogeneous,FALSE
La-Mo-O,mp-19436,"[50614, 50613]",La7Mo7O30,0.007971779,R-3,n,n,,,,{},{},,,La2Mo2O9,reduction,10.1006/jssc.1998.8070,1999,,FALSE
La-Mo-O,mp-560684,[86679],LaMo2O5,0.230690007,P6_3mc,y,y,1498,0,vacuum,{},{},1,,"Mo, MoO2, La2O3",,10.1021/ic980313j,1998,,FALSE
La-Mo-O,mp-3911,"[75224, 68220, 50963, 68219]",LaMo5O8,0.325881713,P2_1/c,y,y,2220,,,{},"{""step1"": {""cool rate"": [{""value"": ""100"", ""unit"": ""C/h""}], ""cool time"": [], ""cool medium"": [], ""cool type"": [], ""end temperature"": [{""value"": ""1300"", ""unit"": ""K""}], ""remark"": []}, ""step2"": {""cool rate"": [], ""cool time"": [], ""cool medium"": [], ""cool type"": [""furnace cool""], ""end temperature"": [""RT""], ""remark"": []}}",1,y,"La2O3, MoO3, Mo",,10.1107/S0108270194000624,1994,,FALSE