system,mp_id,icsd_ids,composition,e_above_hull,Spacegroup Number,solid_state_synthesized_composition,solid_state_synthesized_structure,sss_highest_temperature(K),sss_pressure(GPa),sss_atmosphere,sss_mixing_condition,sss_cooling_condition,sss_heating_step,single_crystal,sss_precursor,other_synthesis_method,reference,reference_year,comment,google_translate
Co-Mo-O,mp-17289,[23808],CoMoO4,0.012773943,C2/m,y,y,1273,AP,,{},{},1,,"CoO, MoO2",,10.1016/S0925-8388(98)00684-7,1998,,FALSE
Co-Pd-O,mp-18919,[31917],CoPdO2,0.225481514,R-3m,y,y,1073,0.3,,{},{},1,,"PdO, CoO",,10.1021/ic50098a011,1971,,FALSE
Co-Pt-O,mp-19238,[35338],CoPt3O6,0,Cmmm,y,y,1123,0.3,Ar,{},{},1,,"CoO, PtO2",,10.1107/S010876818300230X,1983,,FALSE
Co-Pt-O,mp-19210,[31916],CoPtO2,0,R-3m,y,y,1223,0.3,,{},{},1,,"PtO2, Co3O4",,10.1021/ic50098a011,1971,,FALSE
Co-Re-O,mp-550479,[51015],CoRe2O8,0.000219243,P-3,n,n,,,,{},{},,,,decomposition,10.1006/jssc.1998.7806,1998,,FALSE
Co-Re-O,mp-28783,[72872],CoReO4,0.192660075,Cmmm,y,y,1573,5.8,,{},{},1,,"ReO3, Co3O4",,10.1021/ic50145a032,1975,,FALSE
Co-Rh-O,mp-546936,[109301],CoRh2O4,0,Fd-3m,y,y,1123,AP,,{},"{""step1"": {""cool rate"": [], ""cool time"": [], ""cool medium"": [], ""cool type"": [""quench""], ""end temperature"": [""RT""], ""remark"": []}}",2,,"Co, Rh",,10.1016/0254-0584(84)90048-8,1984,,FALSE
Co-Sb-O,mp-1192102,[247302],Co2Sb2O7,0.139725645,Fd-3m,y,y,723,AP,,{},{},2,,"Co(Ac)2·4H2O, Sb2O5·xH2O",,10.1016/j.jssc.2010.01.025,2010,,FALSE
Co-Sb-O,mp-1193389,"[262627, 262626]",CoSb2O4,0,P4_2/mbc,y,y,973,0,vacuum,{},{},1,,"CoO, Sb2O3",,10.1016/j.jssc.2012.01.032,2012,,FALSE
Co-Sb-O,mp-21908,"[203094, 108964]",CoSb2O6,0,P4_2/mnm,y,y,1323,AP,,{},{},1,,"CoO, Sb2O3",,10.1016/0022-4596(89)90049-2,1989,excess Sb2O3,FALSE
Co-Se-O,mp-18973,"[169716, 169715, 49916, 71537]",CoSe2O5,0,Pbcn,n,n,,,,{},{},,,,hydrothermal,10.1103/PhysRevB.82.014411,2010,,FALSE
Co-Se-O,mp-22616,"[155490, 496, 155489]",CoSeO3,0.191350011,Pnma,y,y,1123,3.5,,{},"{""step1"": {""cool rate"": [], ""cool time"": [], ""cool medium"": [], ""cool type"": [""quench""], ""end temperature"": [""RT""], ""remark"": []}}",1,,"H2SeO3, CoO",,10.1103/PhysRevB.73.104442,2006,,FALSE
Co-Se-O,mp-562826,[80401],CoSeO3,0,C2/c,y,n,,,,{},{},,,,hydrothermal,10.1006/jssc.1995.1395,1995,other phase of mp-22616,FALSE
Co-Se-O,mp-504678,[25699],CoSeO4,0,Pnma,n,n,,,,{},{},,,,decomposition,10.1016/S0040-6031(97)00090-7,1997,,FALSE
Co-Se-O,mp-551407,[109072],CoSeO4,0.005124571,Cmcm,n,n,,,,{},{},,,,,10.1524/zkri.1964.120.4-5.317,1964,high temperature/pressure phase of mp-504678,FALSE
Co-Te-O,mp-18855,[50702],Co2Te3O8,0,C2/c,y,y,1023,AP,,"{""step1"": {""grind method"": [""agate mortar""], ""wet/dry"": [], ""liquid"": []}}",{},3,,"CoCl2·2H2O, TeO2",,10.1103/PhysRevB.99.245125,2019,,FALSE
Co-Te-O,mp-1202680,[294],Co3Te2O8,0.42668422,P6_3mc,?,?,,,,{},{},,,,,,,ICSD 294 contain hydrogen,N/A
Co-Te-O,mp-645717,"[183803, 183802, 183805, 249133, 183804]",Co3TeO6,0,C2/c,y,y,970,AP,,{},{},3,,"Co(NO3)2·H2O, H2TeO4·H2O",,10.1016/j.materresbull.2011.10.003,2012,,FALSE
Co-Te-O,mp-562042,[25104],Co6Te5O16,0,Pnma,?,?,,,,{},{},,,,,10.1002/zaac.654270306,1976,insufficient information: no synthesis information,FALSE
Co-Te-O,mp-1198962,[250507],CoTe6O13,0.08226579,R-3,y,y,893,,N2,{},{},1,,"CoCO3, TeO2",,10.1039/B300573A ,2003,,FALSE
Co-W-O,mp-19092,[15851],CoWO4,0,P2/c,y,y,1173,AP,,"{""step1"": {""grind method"": [""ball milling""], ""wet/dry"": [], ""liquid"": [""deionized water""]}}","{""step1"": {""cool rate"": [{""value"": ""300"", ""unit"": ""C/h""}], ""cool time"": [], ""cool medium"": [], ""cool type"": [], ""end temperature"": [""RT""], ""remark"": []}}",6,,"Co3O4, WO3",,10.1016/j.jeurceramsoc.2006.05.085,2007,,FALSE
Cr-Ag-O,mp-27168,[2433],Cr2Ag2O7,0.02017021,P-1,y,y,473,AP,,{},{},1,,"CH3COOAg, (NH4)2Cr2O7",,10.1016/j.apsusc.2018.06.237,2018,,FALSE
Cr-Ag-O,mp-546111,[155507],Cr3AgO8,0,C2/m,y,?,,,,{},{},,,,,10.1103/PhysRevB.73.184101,2006,"modelling of AgCr3O8; AgCr3O8 has been synthesized via solid state reaction, but different lattice parameters: 10.1016/0013-4686(93)80051-Z",FALSE
Cr-Ag-O,mp-542882,"[252779, 160644, 16298]",CrAg2O4,0.022906971,Pnma,y,y,573,AP,,{},{},1,,"CH3COOAg, (NH4)2Cr2O7",,10.1016/j.apsusc.2018.06.237,2018,ICSD 160644 not found; inhomogeneous,FALSE
Cr-Ag-O,mp-19378,"[4149, 25624]",CrAgO2,0,R-3m,y,y,773,AP,,{},{},1,,"CH3COOAg, (NH4)2Cr2O7",,10.1016/j.apsusc.2018.06.237,2018,,FALSE
Cr-As-O,mp-1197025,[100709],Cr2As6O19,0.043902095,Pmmn,?,?,,,,{},{},,,,,,,ICSD 100709 contain hydrogen,N/A
Cr-As-O,mp-19077,[62132],CrAsO4,0,Pnma,n,n,,,,{},{},,,,hydrothermal,10.1021/ic00267a033,1987,beta phase ,FALSE
Cr-Bi-O,mp-30205,[51716],Cr2Bi6O15,0,Ccc2,y,y,923,AP,,{},"{""step1"": {""cool rate"": [], ""cool time"": [], ""cool medium"": [], ""cool type"": [""quench""], ""end temperature"": [""RT""], ""remark"": []}}",1,,"Bi2O3, Cr2O3",,10.1006/jssc.2001.9385,2002,,FALSE
Cr-Bi-O,mp-744682,[68367],Cr8Bi4O29,0.034728645,P-1,n,n,,,,{},{},,,"H2O, CrO3, Bi(NO3)3·5H2O",wet synthesis,"Revue de Chimie Minerale 24, 631 (1987)",1987,,TRUE
Cr-Bi-O,mp-705013,[172004],CrBi8O15,0.002953906,P2_1/m,n,n,,,,{},{},,,"NaBiO3·xH2O, K2CrO4, H2O",hydrothermal,10.1016/j.jssc.2005.11.038,2006,another paper tried solid state synthesis but failed: 10.1016/j.jnucmat.2017.01.052,FALSE
Cr-Bi-O,mp-546027,[246425],CrBiO3,0.014705041,R3c,y,?,,,,{},{},,,,,10.1103/PhysRevB.72.214105,2005,modelling of R3c CrBiO3,FALSE
Cr-Bi-O,mp-559851,"[174403, 160454]",CrBiO3,0.01120269,Pnma,y,y,,,,{},{},,,,,10.1021/cm800375d,2008,high temperature phase of mp-23456,FALSE
Cr-Bi-O,mp-23456,"[174405, 160458, 160457, 174406, 160456, 160455, 174404]",CrBiO3,0.022682788,C2/c,y,y,1653,6,,{},"{""step1"": {""cool rate"": [], ""cool time"": [], ""cool medium"": [], ""cool type"": [""quench""], ""end temperature"": [""RT""], ""remark"": []}}",1,,"Bi2O3, Cr2O3",,10.1021/cm800375d,2008,,FALSE
Cr-Bi-O,mp-1193441,"[36107, 28458]",CrBiO5,0.12495181,P2_1/c,?,?,,,,{},{},,,,,,,"ICSD 36107, 28458 contain hydrogen",N/A
Cr-Bi-O,mp-1199140,[28457],CrBiO5,0.108393184,Pbca,?,?,,,,{},{},,,,,,,ICSD 28457 contain hydrogen,N/A
Cr-Cd-O,mp-19262,[37428],Cr2CdO4,0,Fd-3m,y,y,,0,vacuum,{},{},,,"CdO, Cr2O3",,10.1103/PhysRevB.95.224101,2017,,FALSE
Cr-Cd-O,mp-17759,[18119],CrCdO4,0.013107262,C2/m,n,n,,,,{},{},,,,,10.1016/S1381-1169(01)00262-X,2001,ICSD 18119 doi not working; high temperature phase of mp-18781; beta phase,FALSE
Cr-Cd-O,mp-18781,[18118],CrCdO4,0,Cmcm,n,n,,,,{},{},,,,precipitation,10.1016/S1381-1169(01)00262-X,2001,ICSD 18119 doi not working (correct doi: 10.1524/zkri.1969.130.16.112); inhomogeneous; alpha phase,FALSE
Cr-Co-O,mp-20758,"[61612, 69503]",Cr2CoO4,0,Fd-3m,y,y,1500,AP,,{},"{""step1"": {""cool rate"": [], ""cool time"": [], ""cool medium"": [], ""cool type"": [""quench""], ""end temperature"": [""RT""], ""remark"": []}}",5,,"Co3O4, Cr2O3",,10.1016/S0277-5387(00)84438-1,1986,,FALSE
Cr-Co-O,mp-18788,[23492],CrCoO4,0,Cmcm,y,y,623,0.08,,{},{},1,,"CoO, Cr(OH)3",,10.1063/1.1685022,1971,,FALSE
Cr-Cu-O,mp-504573,[246081],Cr2CuO4,0.022422855,Fd-3m,y,y,,,,{},{},,,,,10.1016/j.jssc.2008.05.018,2008,high temperature phase of mp-1103973,FALSE
Cr-Cu-O,mp-1103973,"[246080, 80476, 167460, 59266, 84378]",Cr2CuO4,0.023419503,I4_1/amd,y,y,1173,AP,,{},{},1,,"Cr2O3, CuO",,10.1107/S0108270197000486,1997,inhomogeneous,FALSE
Cr-Cu-O,mp-546035,[155506],Cr3CuO8,0.049114729,C2/m,?,?,,,,{},{},,,,,10.1103/PhysRevB.73.184101,2006,modelling of Cr3CuO8,FALSE
Cr-Cu-O,mp-505562,"[82065, 402289]",CrCuO2,0.00036324,P6_3/mmc,y,y,,,,{},{},,,,,10.1006/jssc.1996.0109,1996,high temperature phase of mp-510625; 2H phase,FALSE
Cr-Cu-O,mp-510625,"[194152, 194151, 163255, 157800, 163254, 163253, 189047, 402290, 26676, 184467]",CrCuO2,0,R-3m,y,y,1473,AP,,"{""step1"": {""grind method"": [""agate mortar""], ""wet/dry"": [], ""liquid"": []}}","{""step1"": {""cool rate"": [], ""cool time"": [], ""cool medium"": [""air""], ""cool type"": [""quench""], ""end temperature"": [""RT""], ""remark"": []}}",1,,"Cu2O3, Cr2O3",,10.1063/1.4896952,2014,3R phase,FALSE
Cr-Cu-O,mp-504927,"[60825, 183216]",CrCuO4,0.033138842,Cmcm,?,?,,,,{},{},,,"Cr2O3, CuO",,https://gallica.bnf.fr/ark:/12148/bpt6k40013/f1332.item,1962,minority phase: 15%,TRUE
Cr-Fe-O,mp-1104680,[183968],Cr2FeO4,0,I4_1/amd,y,y,,,,{},{},,,,,10.1007/s00269-011-0468-6,2011,high pressure phase of mp-20168,FALSE
Cr-Fe-O,mp-20168,"[183963, 183965, 250575, 183966, 171121, 183961, 183962, 183960, 43269, 44526, 183964, 183967]",Cr2FeO4,0.0027874,Fd-3m,y,y,1473,,Ar/CO2/H2,{},{},1,,"Fe2O3, Cr2O3",,10.2138/am.2014.4736,2014,,FALSE
Cr-Fe-O,mp-1192780,[192388],Cr2FeO4,0.082289893,Pnma,y,y,,,,{},{},,,,,10.2138/am.2014.4736,2014,high temperature/pressure phase of mp-20168,FALSE
Cr-Fe-O,mp-1196629,[34470],Cr4Fe2O19,0.557831545,P2/c,?,?,,,,{},{},,,,,,,ICSD 34470 contain hydrogen,N/A
Cr-Fe-O,mp-1078458,[252042],CrFeO3,0.009988678,R-3,y,y,1223,AP,,{},{},2,,"Fe2O3, Cr2O3",,10.1016/j.elspec.2013.10.004,2013,,FALSE
Cr-Hg-O,mp-1192977,[14176],Cr2Hg2O9,0.159288382,C2/c,?,?,,,,{},{},,,,,,,ICSD 14176 contain hydrogen,N/A
Cr-Hg-O,mp-558700,[416208],Cr2Hg6O9,0.07899486,P2_12_12_1,n,n,,,,{},{},,,"Hg, K2Cr2O7, H2O",hydrothermal,10.1016/j.jssc.2006.04.044,2006,,FALSE
Cr-Hg-O,mp-21074,"[245275, 43451]",Cr2HgO4,0,Fd-3m,y,y,743,0,vacuum,{},{},1,y,"HgO, CrO3",,10.1107/S1600536806033952,2006,inhomogeneous,FALSE
Cr-Hg-O,mp-559125,[416169],Cr2HgO7,0.017574729,P3_2,y,y,473,,,{},{},1,,"HgO, CrO3",,10.1007/s00706-006-0479-z,2006,excess CrO3,FALSE
Cr-Hg-O,mp-559772,[416209],CrHg3O5,0.056513986,Pca2_1,n,n,,,,{},{},,,Hg6Cr2O9,oxidation,10.1016/j.jssc.2006.04.044,2006,,FALSE
Cr-Hg-O,mp-29112,[81605],CrHg5O6,0.042961915,C2/c,n,n,,,,{},{},,,,natural mineral,www.researchgate.net/publication/292014961_The_crystal_structure_of_wattersite_Hg4_1Hg2Cr6O6,1995,,FALSE
Cr-Hg-O,mp-19155,"[2224, 416148]",CrHgO4,0.003505865,P2_1/c,n,n,,,,{},{},,,,,10.1515/znb-2006-0609,2006,other phase of mp-19155,FALSE
Cr-Hg-O,mp-19380,[416147],CrHgO4,0,Cmcm,n,n,,,,{},{},,,"HgO, NaOH, HgCl2, CrO3",hydrothermal,10.1515/znb-2006-0609,2006,inhomogeneous,FALSE
Cr-In-O,mp-560181,[155504],Cr3InO8,0.10400914,C2/m,?,?,,,,{},{},,,,,10.1103/PhysRevB.73.184101,2006,modelling of Cr3InO8,FALSE
Cr-In-O,mp-756147,[185586],CrInO3,0.051255895,Pnma,y,y,1500,6,,{},"{""step1"": {""cool rate"": [], ""cool time"": [], ""cool medium"": [], ""cool type"": [""quench""], ""end temperature"": [""RT""], ""remark"": []}}",1,,"In2O3, Cr2O3",,10.1021/cm3009144,2012,,FALSE
Cr-Mo-O,mp-647862,"[418845, 418846, 418848, 418847]",Cr2Mo3O12,0.115575213,Pbcn,y,y,,,,{},{},,,,,10.1016/j.jssc.2008.03.015,2008,high temperature phase of mp-704707,FALSE
Cr-Mo-O,mp-704707,[62831],Cr2Mo3O12,0,P2_1/c,y,y,1173,AP,,"{""step1"": {""grind method"": [""mortar""], ""wet/dry"": [], ""liquid"": []}}","{""step1"": {""cool rate"": [], ""cool time"": [], ""cool medium"": [], ""cool type"": [""slow cooling""], ""end temperature"": [""RT""], ""remark"": []}}",1,,"Cr2O3, MoO3",,10.1088/1674-1056/23/6/066501,2014,,FALSE
Cr-Ni-O,mp-19303,"[193931, 193990, 28835, 280062, 31299, 84377, 37427, 280061, 31298]",Cr2NiO4,0.044249454,Fd-3m,y,y,,,,{},{},,,,,10.1134/S1063783414040209,2014,energy above hull looks suspicious (transition temperature at 310); high temperature phase of mp-19344,FALSE
Cr-Ni-O,mp-19344,"[193931, 193932, 193990, 31300, 28835, 280062, 37023, 31299, 84377, 37427, 280061, 31298]",Cr2NiO4,0.004554593,I4_1/amd,y,y,1820,AP,,{},{},2,,"Cr2O3, NiO",,10.1134/S1063783414040209,2014,,FALSE
Cr-Ni-O,mp-18726,"[18116, 23493]",CrNiO4,0,Cmcm,y,y,1073,0.1,O2,{},"{""step1"": {""cool rate"": [], ""cool time"": [], ""cool medium"": [""cold water""], ""cool type"": [""quench""], ""end temperature"": [""RT""], ""remark"": []}}",1,,"Ni(OH)2, Cr2O3·xH2O",,10.1111/j.1151-2916.1968.tb15930.x,1968,ICSD 18116 doi not working,FALSE
Cr-Pb-O,mp-22373,"[710043, 201562, 29269, 34831]",CrPb2O5,0,C2/m,y,y,923,AP,,{},{},2,,"PbO, Cr2O3",,10.1063/1.333271,1984,,FALSE
Cr-Pb-O,mp-705034,[99433],CrPb5O8,0.015161741,P2_1/c,y,y,1173,AP,,{},{},1,,"PbO, Pb2O(CrO4)",,10.1016/j.jssc.2003.11.005,2004,,FALSE
Cr-Pb-O,mp-22364,"[194155, 160196]",CrPbO3,0.309145738,Pm-3m,y,y,1073,8,,{},"{""step1"": {""cool rate"": [], ""cool time"": [], ""cool medium"": [], ""cool type"": [""quench""], ""end temperature"": [""RT""], ""remark"": []}}",1,,"CrO2, PbO",,10.1016/j.jssc.2007.09.017,2007,,FALSE
Cr-Pb-O,mp-542031,"[91735, 26484]",CrPbO4,0.020387014,Pnma,y,y,,,,{},{},,,,,10.1180/002646100549193,2000,high temperature phase of mp-19146,FALSE
Cr-Pb-O,mp-19146,"[28386, 24607, 40920, 23809]",CrPbO4,0,P2_1/c,y,y,923,AP,,{},{},1,,"PbO, Cr2O3",,10.1016/j.jnucmat.2008.02.010,2008,,FALSE
Cr-Pd-O,mp-1063607,"[193884, 193886, 193885]",CrPdO2,0,R-3m,?,?,,,,{},{},,,,,10.1021/ic50098a011,1969,"insufficent information: paper suggested it can be synthesized via high pressure and temperature solid state reaction, but no information",FALSE
Cr-Re-O,mp-21241,[173874],Cr2ReO6,0.047306386,P4_2/mnm,y,y,1273,6,,{},"{""step1"": {""cool rate"": [], ""cool time"": [], ""cool medium"": [], ""cool type"": [""quench""], ""end temperature"": [""RT""], ""remark"": []}}",1,,"Cr2O3, ReO3",,10.1103/PhysRevB.97.014426,2018,inhomogeneous,FALSE
Cr-Re-O,mp-31628,[173875],CrReO4,0.024651969,C2/m,y,y,1623,5,,{},{},1,,"Cr2O3, ReO3; Cr2O3, ReO3, Re",,10.1016/j.jssc.2009.03.025,2009,,FALSE
Cr-Se-O,mp-562099,[82026],Cr2Se6O15,0.103839095,P2_1/c,y,y,673,0,vacuum,{},"{""step1"": {""cool rate"": [], ""cool time"": [], ""cool medium"": [], ""cool type"": [""slow cooling""], ""end temperature"": [""RT""], ""remark"": []}}",1,,"Cr2O3, SeO2",,10.1006/jssc.1996.0092,1996,,FALSE
Cr-Te-O,mp-540537,[1],Cr2Te4O11,0.120101025,P2_1/c,y,y,973,0,vacuum,{},{},1,,"Cr2O3, TeO2",,10.1107/S0567740876002549,1976,,TRUE
Cr-Te-O,mp-21355,"[93212, 24794]",Cr2TeO6,0,P4_2/mnm,y,y,975,AP,,{},{},1,,"Cr2O3, TeO2",,10.1016/S0925-8388(00)01508-5,2001,,FALSE
Cr-W-O,mp-19894,"[20314, 24793]",Cr2WO6,0,P4_2/mnm,y,y,1273,AP,,{},"{""step1"": {""cool rate"": [], ""cool time"": [], ""cool medium"": [], ""cool type"": [""furnace cool""], ""end temperature"": [""RT""], ""remark"": []}}",1,,"Cr2O3, WO3",,10.1016/0022-3697(68)90187-X,1968,,FALSE
Cr-W-O,mp-18405,[36213],CrWO4,0.032846243,Fmmm,y,y,1423,0,vacuum,{},{},1,,"Cr2O3, WO3, WO2",,10.1016/0025-5408(83)90120-4,1983,,FALSE
Cr-W-O,mp-18785,[8269],CrWO4,0,Cmmm,y,?,,,,{},{},,,,,10.1016/0025-5408(83)90120-4,1983,other refinement of mp-18405,FALSE
Cs-Ag-O,mp-8666,"[25745, 40160]",CsAgO,0,I4/mmm,y,y,773,,Ar,{},{},1,,"Ag2O, Cs2O",,10.1002/zaac.19683580507,1968,no access to original paper,TRUE
Cs-Al-O,mp-562441,[69353],Cs3AlO3,0,P2_1/c,y,y,953,,Ar,{},"{""step1"": {""cool rate"": [{""value"": ""30"", ""unit"": ""C/day""}], ""cool time"": [], ""cool medium"": [], ""cool type"": [], ""end temperature"": [""RT""], ""remark"": []}}",1,,"Cs2O, CsAlO2",,10.1016/0167-2738(90)90466-5,1990,,FALSE
Cs-Al-O,mp-866492,[420321],Cs9AlO4,0,I4/mcm,y,y,573,,Ar,{},"{""step1"": {""cool rate"": [], ""cool time"": [{""value"": ""10"", ""unit"": ""hour""}], ""cool medium"": [], ""cool type"": [], ""end temperature"": [{""value"": ""200"", ""unit"": ""C""}], ""remark"": []}, ""step2"": {""cool rate"": [], ""cool time"": [], ""cool medium"": [], ""cool type"": [""furnace cool""], ""end temperature"": [""RT""], ""remark"": []}}",1,,"Al2O3, Cs, Cs2O",,10.1002/zaac.200900193,2009,,TRUE
Cs-Al-O,mp-14069,[28372],CsAlO2,0,Fd-3m,y,y,1123,,Ar,{},{},1,,"Al2O3, Cs2CO3",,10.1016/0167-2738(90)90466-5,1990,,FALSE
Cs-As-O,mp-30300,[413151],Cs3As5O9,0,P31m,y,y,773,,,{},"{""step1"": {""cool rate"": [{""value"": ""25"", ""unit"": ""C/h""}], ""cool time"": [], ""cool medium"": [], ""cool type"": [], ""end temperature"": [""RT""], ""remark"": []}}",1,,"Cs, As2O3",,http://znaturforsch.com/ab/v58b/s58b0620.pdf,2003,,TRUE
Cs-As-O,mp-30119,[412392],Cs3AsO4,0,Pnma,y,y,973,,Ar,{},"{""step1"": {""cool rate"": [], ""cool time"": [], ""cool medium"": [], ""cool type"": [""furnace cool""], ""end temperature"": [""RT""], ""remark"": []}}",1,,"CsO2, As",,10.1515/znb-2002-0601,2002,,TRUE
Cs-As-O,mp-554229,[172984],CsAs3O8,0,C2/c,n,n,,,,{},{},,,"Cs2CO3, Fe2O3, H3AsO4",hydrothermal,10.1107/S0108768106054942,2007,,TRUE
Cs-Au-O,mp-505212,"[79088, 78365]",Cs3AuO,0,P6_3/mmc,y,y,573,,Ar,{},{},1,,"CsO, CsAu",,10.1002/ange.19931050726,1993,,TRUE
Cs-Au-O,mp-572441,[94477],Cs3AuO2,0,P2_1/c,y,y,653,,Ar,{},{},1,,"Cs2O, CsO2, CsAu",,10.1002/1521-3749(200101)627:1<77::AID-ZAAC77>3.0.CO;2-N,2001,,TRUE
Cs-Au-O,mp-510075,"[411334, 95821]",Cs7Au5O2,0,Immm,y,y,698,,Ar,{},{},1,,"CsAu, Au, Cs oxide",,10.1002/1521-3773(20000901)39:17<3066::AID-ANIE3066>3.0.CO;2-J,2000,,FALSE
Cs-Au-O,mp-9986,"[409553, 43006]",CsAuO,0,I4/mmm,n,n,,,,{},{},,,CsAu,oxidation,10.1524/ncrs.2001.216.14.515,2001,,FALSE
Cs-Bi-O,mp-555117,[95897],Cs2Bi4O7,0,C2/c,y,y,973,,,{},"{""step1"": {""cool rate"": [], ""cool time"": [], ""cool medium"": [], ""cool type"": [""furnace cool""], ""end temperature"": [""RT""], ""remark"": []}}",1,,"Cs, Bi2O3",,10.1515/znb-2002-1003,2002,,TRUE
Cs-Bi-O,mp-29505,[406563],Cs3BiO3,0,P2_13,y,y,823,,,{},{},1,,"Cs2O, Bi2O3",,10.1002/zaac.199762301131,2004,,TRUE
Cs-Bi-O,mp-635020,[95894],Cs6Bi4O9,0.01305196,P-1,y,y,973,,,{},"{""step1"": {""cool rate"": [], ""cool time"": [], ""cool medium"": [], ""cool type"": [""furnace cool""], ""end temperature"": [""RT""], ""remark"": []}}",1,,"CsO2, Bi",,10.1515/znb-2002-1003,2002,inhomogeneous,TRUE
Cs-Bi-O,mp-29506,[406564],CsBiO2,0,C2/c,y,y,973,,,{},{},1,,"Cs2O, Bi2O3",,10.1002/zaac.199762301131,2004,,TRUE
Cs-Co-O,mp-540730,[6154],Cs2CoO3,0,Cmce,y,y,,,Ar,{},{},,,"Co3O4, CsO1.48",,10.1002/zaac.19744080111,1974,excess CsO1.48,TRUE
Cs-Cr-O,mp-31378,[170083],Cs2Cr4O13,0.004573334,P2_1/c,n,n,,,,{},{},,,"CrO3, Cs2CO3, CdCO3",evaporation,10.1107/S0108270103029068,2004,,FALSE
Cs-Cr-O,mp-647813,"[30204, 300021]",Cs2CrO4,0,Pnma,y,y,973,,O2,{},{},1,,"Cs2CO3, Cr2O3",,10.1016/S0022-3115(97)00233-X,1997,,FALSE
Cs-Cr-O,mp-1193081,[174316],Cs6Cr2O7,0,P2_1/c,y,y,773,,Ar,{},"{""step1"": {""cool rate"": [{""value"": ""100"", ""unit"": ""C/h""}], ""cool time"": [], ""cool medium"": [], ""cool type"": [], ""end temperature"": [""RT""], ""remark"": []}}",1,,"Cs, CsO2, Cr2O3",,www.researchgate.net/publication/29757291_Neue_Oxoferrate_der_Alkalimetalle_-_Synthesen_und_Kristallchemie,2006,,TRUE
Cs-Cr-O,mp-573422,"[28410, 155503]",CsCr3O8,0,Pnma,y,y,523,AP,,{},{},1,,"CsO, CrO3",,10.1071/CH9762137,1976,inhomogeneous,FALSE
Cs-Cu-O,mp-540999,[39535],Cs2CuO2,1.003900982,I4/mmm,?,?,,,,{},{},,,,,"Zhurnal Neorganicheskoj Khimii 36, 2745 (1991)",1991,translation issue: russian,FALSE
Cs-Cu-O,mp-16543,[94388],Cs3Cu5O4,0,P2_1/c,y,y,833,,,{},"{""step1"": {""cool rate"": [{""value"": ""50"", ""unit"": ""C/h""}], ""cool time"": [], ""cool medium"": [], ""cool type"": [], ""end temperature"": [""RT""], ""remark"": []}}",1,,"Cs0.79, Cu2O",,10.1002/zaac.19835040908,1983,,TRUE
Cs-Cu-O,mp-553303,[413342],CsCu3O2,0,P-3m1,y,y,723,,Ar,"{""step1"": {""grind method"": [""ball milling""], ""wet/dry"": [], ""liquid"": []}}",{},1,,"CsN3, CuO, Cu2O",,10.1002/zaac.200300309,2003,,FALSE
Cs-Cu-O,mp-541037,"[37079, 40161]",CsCuO,0,Cmcm,y,y,673,0,vacuum,{},{},1,,"Cu2O, CsO0.48",,10.1002/zaac.19834970207,1983,,TRUE
Cs-Cu-O,mp-553310,[15097],CsCuO2,0,Cmcm,y,y,655,,O2,{},{},1,,"Cs2O, CuO",,10.1016/0040-6031(95)02575-8,1995,,FALSE
Cs-Fe-O,mp-17443,[33861],Cs2FeO4,0,Pnma,y,y,673,,O2,{},{},1,,"Fe2O3, CsOx",,10.1007/BF02035384,1992,,FALSE
Cs-Fe-O,mp-1191216,[174317],Cs4Fe2O5,0.531915859,C2/c,?,?,773,,Ar,{},{},,,"Cs, CsO2, Fe2O3",,freidok.uni-freiburg.de/data/2942,2006,minority phase,TRUE
Cs-Fe-O,mp-1205381,[423336],Cs4FeO3,0,P-1,?,?,,,,{},{},,,,,10.1515/znb-2011-1209,2011,minority phase; unintended product,FALSE
Cs-Fe-O,mp-1201003,[174309],Cs4FeO4,0.128456019,P2_1/c,?,?,673,,Ar,{},{},,,"Cs, CsO2, Fe2O3",,freidok.uni-freiburg.de/data/2942,2006,minority phase,TRUE
Cs-Fe-O,mp-562735,[414482],Cs5FeO4,0.004659349,P2_1/c,y,?,,,,{},{},,,,,10.1002/zaac.200400366,2005,other phase of mp-1201412; alpha phase; insufficient information: uncertain phase percentage,TRUE