system,mp_id,icsd_ids,composition,e_above_hull,Spacegroup Number,solid_state_synthesized_composition,solid_state_synthesized_structure,sss_highest_temperature(K),sss_pressure(GPa),sss_atmosphere,sss_mixing_condition,sss_cooling_condition,sss_heating_step,single_crystal,sss_precursor,other_synthesis_method,reference,reference_year,comment,google_translate
Hg-Se-O,mp-558456,[418001],Hg3Se4O5,0,P-1,y,y,553,0,vacuum,{},"{""step1"": {""cool rate"": [{""value"": ""2"", ""unit"": ""C/h""}], ""cool time"": [], ""cool medium"": [], ""cool type"": [], ""end temperature"": [{""value"": ""50"", ""unit"": ""C""}], ""remark"": []}, ""step2"": {""cool rate"": [], ""cool time"": [{""value"": ""1"", ""unit"": ""hour""}], ""cool medium"": [], ""cool type"": [], ""end temperature"": [""RT""], ""remark"": []}}",1,,"HgO, Se, SeO2",,10.1039/B706844A,2007,,FALSE
Hg-Se-O,mp-565679,[412549],Hg4Se4O9,0.014419686,P2_1/c,n,n,823,0,vacuum,{},{},,,"HgO, SeO2",sublimation,10.1016/S1293-2558(02)01385-7,2002,inhomogeneous,FALSE
Hg-Se-O,mp-9228,[79694],HgSeO3,0.003032082,Pnma,y,n,,,,{},{},,,,hydrothermal,10.1016/S1293-2558(02)01385-7,2002,alpha phase; other phase of mp-557224,FALSE
Hg-Se-O,mp-10798,[412548],HgSeO3,0.007033825,P2_1/c,y,n,,,,{},{},,,,Precipitation,10.1016/S1293-2558(02)01385-7,2002,gamma phase; other phase of mp-557224,FALSE
Hg-Se-O,mp-557224,[412547],HgSeO3,0,P2_1/c,y,y,693,0,vacuum,{},{},1,,"HgO, SeO2",,10.1016/S1293-2558(02)01385-7,2002,beta phase,FALSE
Hg-Se-O,mp-10796,[412403],HgSeO4,0,Pmn2_1,n,n,,,,{},{},,,"HgO, H2SeO4",hydrothermal,10.1515/znb-2002-0911,2002,,FALSE
Hg-Te-O,mp-560456,[412797],Hg2Te2O7,0.019381801,Aea2,n,n,,,,{},{},,,,,10.1524/zkri.218.10.691.20762,2003,beta phase; other phase of mp-18321,FALSE
Hg-Te-O,mp-18321,[412800],Hg2Te2O7,0.023755604,C2/c,n,n,873,0,vacuum,{},{},,,"HgO, TeO2, TeO3",chemical transport reaciton,10.1524/zkri.218.10.691.20762,2003,alpha phase; inhomogeneous,FALSE
Hg-Te-O,mp-29510,[203064],Hg2TeO3,0.008422733,Pma2,n,n,,,,{},{},,,,natural mineral,pubs.geoscienceworld.org/canmin/article/27/1/133/12081/the-crystal-structure-of-magnolite-hg-super-1-2-te,1989,,FALSE
Hg-Te-O,mp-5363,"[98671, 391134]",Hg2TeO5,0.019747481,Pna2_1,n,n,,,,{},{},,,"Hg(NO3)2·H2O, H6TeO6, H2O",hydrothermal,10.1002/zaac.200390111,2003,,FALSE
Hg-Te-O,mp-3538,"[98672, 391133]",Hg3TeO6,0,Ia-3,n,n,,,,{},{},,,"Hg, HgO, TeO3, HgCl2, H6TeO6",chemical transport reaciton,10.1002/zaac.200390111,2003,,FALSE
Hg-Te-O,mp-557953,[30325],Hg3TeO6,0.063503375,Ia-3d,n,?,,,,{},{},,,,,10.1002/zaac.200390111,2003,old refinement of mp-3538,FALSE
Hg-Te-O,mp-28318,[61673],HgTeO3,0.013999191,P-1,y,y,770,0,vacuum,{},{},1,,"HgO, TeO2",,10.1107/S0108270186094064,1986,,FALSE
Hg-W-O,mp-29894,[90085],Hg2WO4,0,C2/c,n,n,,,,{},{},,,"Na2WO4·H2O, Hg2(NO3)2.H2",hydrothermal,10.1021/ic000331c,2000,,FALSE
Hg-W-O,mp-19132,"[169667, 169669, 280305, 169668, 280911]",HgWO4,0.020370201,C2/c,y,y,973,0.3,Ar,{},"{""step1"": {""cool rate"": [], ""cool time"": [{""value"": "" serveral"", ""unit"": ""hour""}], ""cool medium"": [], ""cool type"": [], ""end temperature"": [""RT""], ""remark"": []}}",1,,"HgCl2, Na2WO4·H2O",,10.1107/S0108270102000379,2002,,FALSE
Hg-W-O,mp-1202359,[169670],HgWO4,0.101490345,P2_1/c,y,?,,,,{},{},,,,,10.1103/PhysRevB.82.035212,2010,modelling of high pressure mp-19132,FALSE
Hg-W-O,mp-1191753,[169671],HgWO4,0.260140117,Cmce,y,?,,,,{},{},,,,,10.1103/PhysRevB.82.035212,2010,modelling of high pressure mp-19132,FALSE
Ho-Al-O,mp-14388,[33603],Ho3Al5O12,0,Ia-3d,y,y,1873,AP,,{},"{""step1"": {""cool rate"": [], ""cool time"": [], ""cool medium"": [""air""], ""cool type"": [""quench""], ""end temperature"": [""RT""], ""remark"": []}}",2,,"Al2O3, Ho2O3",,10.2109/jcersj1950.87.1008_405,1979,,TRUE
Ho-Al-O,mp-4891,"[39606, 1236]",HoAlO3,0.015691882,Pnma,y,y,1573,AP,,{},{},2,,,,10.1016/S0011-2275(03)00099-7,2003,,FALSE
Ho-As-O,mp-12944,[155919],HoAsO4,0,I4_1/amd,y,y,973,,"vacuum,air",{},{},4,,"As2O5, Ho2O3",,10.1002/zaac.200400544,2005,excess As2O5,TRUE
Ho-Bi-O,mp-1067937,"[237869, 423914, 261434]",Ho2BiO2,0,I4/mmm,y,y,1273,0,vacuum,{},{},3,,"Bi, Ho, Ho2O3",,10.1021/ja111015p,2011,,FALSE
Ho-Co-O,mp-20570,"[172048, 23659]",HoCoO3,0.016298994,Pnma,y,y,1650,6,,"{""step1"": {""grind method"": [""agate mortar""], ""wet/dry"": [], ""liquid"": []}}","{""step1"": {""cool rate"": [], ""cool time"": [], ""cool medium"": [], ""cool type"": [""quench""], ""end temperature"": [""RT""], ""remark"": []}}",1,,"Ho2O3, KClO4, Co, Co3O4",,10.1016/j.jssc.2006.04.028,2006,,FALSE
Ho-Cr-O,mp-756834,"[239908, 251089, 236371]",HoCrO3,0.170836443,Pnma,y,y,1573,AP,,"{""step1"": {""grind method"": [""mortar""], ""wet/dry"": [], ""liquid"": []}}","{""step1"": {""cool rate"": [], ""cool time"": [], ""cool medium"": [], ""cool type"": [""furnace cool""], ""end temperature"": [""RT""], ""remark"": []}}",1,,"Ho2O3, Cr2O3",,10.1016/j.jmmm.2016.05.083,2016,,FALSE
Ho-Cr-O,mp-19055,"[173264, 169873]",HoCrO4,0.080135735,I4_1/a,y,y,,,,{},{},,,,,10.1016/j.solidstatesciences.2007.03.003,2007,high temperature/pressure phase of mp-19076,FALSE
Ho-Cr-O,mp-19076,"[169872, 173263, 26985]",HoCrO4,0,I4_1/amd,y,y,853,,O2,{},{},3,,"Cr(NO3)3·H2O, Ho(NO3)3·H2O",,10.1016/j.solidstatesciences.2007.03.003,2007,,FALSE
Ho-Cu-O,mp-5029,"[79428, 1063, 69330]",Ho2Cu2O5,0.048700286,Pna2_1,y,y,1223,AP,,{},{},1,,"Ho2O3, CuO",,10.1006/jssc.1995.1141,1995,,FALSE
Ho-Fe-O,mp-17849,[9827],Ho6Fe16O,0.820249627,Im-3m,n,n,,,,{},{},,,,,10.1063/1.327131,1979,,FALSE
Ho-Fe-O,mp-19785,"[239903, 27281, 189732]",HoFeO3,0.013215142,Pnma,y,y,1573,AP,,"{""step1"": {""grind method"": [""mortar""], ""wet/dry"": [], ""liquid"": []}}","{""step1"": {""cool rate"": [], ""cool time"": [], ""cool medium"": [], ""cool type"": [""furnace cool""], ""end temperature"": [""RT""], ""remark"": []}}",1,,"Ho2O3, Fe2O3",,10.1016/j.jmmm.2016.05.083,2016,,FALSE
Ho-Ga-O,mp-15575,[409390],Ho3Ga5O12,0,Ia-3d,y,y,1473,AP,,{},"{""step1"": {""cool rate"": [{""value"": ""100"", ""unit"": ""C/h""}], ""cool time"": [], ""cool medium"": [], ""cool type"": [], ""end temperature"": [""RT""], ""remark"": []}}",1,,"Ho2O3, Ga2O3",,10.1103/PhysRevB.91.085118,2015,,FALSE
Ho-Ga-O,mp-31114,[99496],Ho3GaO6,0.003977077,Cmc2_1,y,y,1673,AP,,{},"{""step1"": {""cool rate"": [], ""cool time"": [], ""cool medium"": [""air""], ""cool type"": [""quench""], ""end temperature"": [""RT""], ""remark"": []}}",3,,"Ho2O3, Ga2O3",,10.1016/j.jssc.2003.12.024,2004,,FALSE
Ho-Ga-O,mp-755416,[420711],HoGaO3,0.049557427,Pnma,y,y,1523,7.5,,{},"{""step1"": {""cool rate"": [], ""cool time"": [{""value"": ""20"", ""unit"": ""min""}], ""cool medium"": [], ""cool type"": [], ""end temperature"": [{""value"": ""650"", ""unit"": ""C""}], ""remark"": []}, ""step2"": {""cool rate"": [], ""cool time"": [], ""cool medium"": [], ""cool type"": [""furnace cool""], ""end temperature"": [""RT""], ""remark"": []}}",1,,"Ho2O3, Ga2O3",,10.1515/znb-2009-0907,2009,inhomogeneous,FALSE
Ho-Ge-O,mp-560082,[161912],Ho2Ge2O7,0,P4_12_12,y,y,1523,AP,,{},{},2,,"Ho2O3, GeO2",,10.1103/PhysRevB.77.224423,2008,,FALSE
Ho-Hf-O,mp-554082,[162005],Ho2Hf2O7,0.013834078,Fd-3m,y,y,,,,{},{},,,,,10.1063/1.2969662,2008,"modelling of pyrochlore Ho2Hf2O7, which can be synthesized via solid state synthesis : 10.1016/j.jssc.2006.03.036",FALSE
Ho-Hg-O,mp-11706,[69734],Ho2HgO4,0.003025181,C2/m,y,y,893,0.62,O2,{},{},1,y,"HgO, Ho2O3",,10.1016/0022-5088(91)90335-2,1991,,TRUE
Ho-Mn-O,mp-510225,"[169737, 97047, 169738, 84354]",HoMn2O5,0,Pbam,y,y,1423,,O2,{},{},1,,"Ho2O3, Tb2O3, MnO2",,10.1103/PhysRevB.71.172301,2004,,FALSE
Ho-Mn-O,mp-22081,"[157395, 162206, 165196]",HoMnO3,0.322064331,Pnma,y,y,,,,{},{},,,,,10.1016/j.matchemphys.2008.07.009,2008,high temperature/pressure phase of mp-19056,FALSE
Ho-Mn-O,mp-1193069,[182632],HoMnO3,0.405469718,Cmc2_1,y,?,,,,{},{},,,,,10.1103/PhysRevB.83.144404,2011,other refinement of mp-19056,FALSE
Ho-Mn-O,mp-19056,"[191216, 191215, 191217, 92838, 184887, 162199]",HoMnO3,0.106574783,P6_3cm,y,y,1523,AP,,"{""step1"": {""grind method"": [""agate mortar""], ""wet/dry"": [], ""liquid"": []}}",{},5,,"Ho2O3, Mn2O3",,10.1016/j.physb.2012.02.007,2012,,FALSE
Ho-Mo-O,mp-1196327,[195613],Ho2Mo3O12,0.002296321,Pba2,y,y,1173,AP,,"{""step1"": {""grind method"": [""agate mortar""], ""wet/dry"": [], ""liquid"": []}}","{""step1"": {""cool rate"": [], ""cool time"": [], ""cool medium"": [], ""cool type"": [""slow cooling""], ""end temperature"": [""RT""], ""remark"": []}}",2,,"Ho2O3, MoO3",,10.1016/j.materresbull.2015.05.021,2015,,FALSE
Ho-Mo-O,mp-29142,[84237],Ho2Mo4O15,0,P2_1/c,y,y,873,AP,,{},{},1,,"MoO3, Ho2O3",,10.1179/175355507X196484,2013,,FALSE
Ho-Mo-O,mp-16811,[99571],Ho2MoO6,0,C2/c,y,y,1423,AP,,{},{},1,,"Ho2O3, MoO3",,10.1016/j.jssc.2004.03.046,2004,,FALSE
Ho-Mo-O,mp-14801,[69577],Ho4Mo4O11,0.167921882,Pbam,y,y,1980,0,vacuum,{},"{""step1"": {""cool rate"": [{""value"": ""50"", ""unit"": ""C/h""}], ""cool time"": [], ""cool medium"": [], ""cool type"": [], ""end temperature"": [{""value"": ""1300"", ""unit"": ""K""}], ""remark"": []}, ""step2"": {""cool rate"": [], ""cool time"": [], ""cool medium"": [], ""cool type"": [""furnace cool""], ""end temperature"": [""RT""], ""remark"": []}}",1,y,"Ho2O3, MoO3",,10.1107/S0108270191002342,1991,,FALSE
Ho-Mo-O,mp-1105194,[196166],Ho5Mo2O12,0.015756561,C2/m,n,n,,,,{},{},,,"MoO3, Mo, Ho2O3, CsCl",flux,10.1021/acs.inorgchem.5b02132,2015,,FALSE
Ho-Nb-O,mp-3144,"[73392, 20422]",HoNbO4,0,C2/c,y,y,,,,{},{},,,"Ho2O3, Nb2O5",,arxiv.org/abs/1912.07268,2019,,FALSE
Ho-Ni-O,mp-18974,"[191793, 24876]",HoNiO3,0,Pnma,y,y,,,,{},{},,,,,10.1103/PhysRevB.64.094102,2000,"high temperature phase of monoclinic HoNiO3, which can be synthesized via high pressure solid state synthesis: 10.1021/ja984015x",FALSE
Ho-Re-O,mp-558969,[245106],Ho3ReO7,0.045120522,C222_1,y,y,1673,0,vacuum,"{""step1"": {""grind method"": [""agate mortar""], ""wet/dry"": [], ""liquid"": []}}",{},1,,"Ho2O3, ReO2, ReO3",,10.1016/j.jssc.2006.07.033,2006,,FALSE
Ho-Re-O,mp-29937,[92507],Ho5Re2O12,0,C2/m,y,y,1323,0,vacuum,{},{},1,,"Ho, Ho(ReO4)3",,10.1002/(SICI)1521-3749(200001)626:1<80::AID-ZAAC80>3.0.CO;2-S,2000,,FALSE
Ho-Ru-O,mp-30889,[96730],Ho2Ru2O7,0.032991553,Fd-3m,y,y,1398,AP,,{},"{""step1"": {""cool rate"": [], ""cool time"": [], ""cool medium"": [""air""], ""cool type"": [""quench""], ""end temperature"": [""RT""], ""remark"": []}}",2,,"RuO2, Ho2O3",,10.1103/PhysRevB.66.052406,2002,,FALSE
Ho-Sb-O,mp-1067935,[237863],Ho2SbO2,0,I4/mmm,y,y,1773,,,{},{},1,,"HoSb, Sb, Ho2O3",,10.1021/ja209652d,2012,,FALSE
Ho-Sb-O,mp-1104812,[380458],Ho3SbO3,0.034975061,C2/m,y,y,1873,0,vacuum,{},"{""step1"": {""cool rate"": [], ""cool time"": [], ""cool medium"": [], ""cool type"": [""furnace cool""], ""end temperature"": [""RT""], ""remark"": []}}",1,,"HoSb, Ho2O3",,10.1021/ja1027698,2010,,FALSE
Ho-Sc-O,mp-13840,[23480],Ho3ScO6,0,R-3,?,?,,,,{},{},,,,,"Comptes Rendus des Seances de l'Academie des Sciences, Serie C: Sciences Chimiques 277, 1365 (1973)",1973,insufficient information,TRUE
Ho-Sc-O,mp-31121,[99546],HoScO3,0.036671957,Pnma,y,y,1748,AP,,"{""step1"": {""grind method"": [""agate mortar""], ""wet/dry"": [], ""liquid"": [""acetone""]}}",{},2,,,,10.1016/j.jssc.2004.02.025,2004,,FALSE
Ho-Se-O,mp-13974,[25809],Ho2SeO2,0,P-3m1,n,n,,,,{},{},,,"H2Se, Ho2O3",solid gas reaction,10.1107/S0365110X60000339,1960,,FALSE
Ho-Sn-O,mp-3884,"[82961, 84748]",Ho2Sn2O7,0,Fd-3m,y,y,1773,AP,,{},{},2,,"SnO2, Ho2O3",,10.1006/jssc.1997.7277,1997,,FALSE
Ho-Ta-O,mp-31416,[55656],Ho3TaO7,0,C222_1,y,y,1673,AP,,{},"{""step1"": {""cool rate"": [], ""cool time"": [], ""cool medium"": [""air""], ""cool type"": [""quench""], ""end temperature"": [""RT""], ""remark"": []}}",1,,"Ho2O3, Ta2O5",,10.1088/0953-8984/16/23/025,2004,,FALSE
Ho-Ta-O,mp-4344,"[79499, 153363]",HoTaO4,0.004398348,C2/c,y,?,,,,{},{},,,,,,,might be old refinement of mp-5985,N/A
Ho-Ta-O,mp-5985,"[415436, 155660]",HoTaO4,0,P2/c,y,y,1973,AP,,"{""step1"": {""grind method"": [""ball milling""], ""wet/dry"": [], ""liquid"": [""C2H5OH""]}}",{},1,,"Ho2O3, Ta2O5",,10.1111/jace.16328,2019,,FALSE
Ho-Te-O,mp-542514,"[94450, 413660]",Ho2Te4O11,0,C2/c,y,y,1073,AP,,{},{},2,,"Ho2O3, TeO2",,10.1016/0022-5088(90)90019-G,1990,,FALSE
Ho-Te-O,mp-5572,"[94451, 413665]",Ho2Te5O13,0,P-1,n,n,,,,{},{},,,"Ho2O3, TeO2, CsCl",flux,10.1002/1521-3749(200109)627:9<2225::AID-ZAAC2225>3.0.CO;2-D,2001,,TRUE
Ho-Ti-O,mp-33948,"[252236, 191616]",Ho2Ti2O7,0.017647928,Fd-3m,y,y,1673,AP,,"{""step1"": {""grind method"": [""agate mortar""], ""wet/dry"": [], ""liquid"": []}}",{},1,,"Ho2O3, TiO2",,10.1103/PhysRevB.92.024110,2015,,FALSE
Ho-V-O,mp-19024,"[10018, 185837]",HoVO3,0.086013969,Pnma,y,y,1773,,Ar/H2,{},{},4,,"Ho2O3, V2O5",,10.1103/PhysRevB.82.144425,2010,,FALSE
Ho-V-O,mp-1095454,"[192832, 192835]",HoVO4,0.036518958,I4_1/a,y,y,,,,{},{},,,,,10.1088/0953-8984/26/26/265402,2014,high pressure phase of mp-18734,FALSE
Ho-V-O,mp-18734,"[192831, 246683, 9397, 192834, 191368, 15603, 78079]",HoVO4,0,I4_1/amd,y,y,,,,{},{},,,"Ho2O3, V2O5",,10.1088/0953-8984/26/26/265402,2014,,FALSE
Ho-V-O,mp-1104326,[152694],HoVO4,2.912424177,I4_1/amd,y,?,,,,{},{},,,,,10.1016/j.jallcom.2004.10.073,2005,other refinement of mp-18734,FALSE
Ho-W-O,mp-19065,[92038],Ho6WO12,0.034987447,R-3,y,y,1573,AP,,"{""step1"": {""grind method"": [""agate mortar""], ""wet/dry"": [], ""liquid"": [""alcohol""]}}",{},2,,"Ho2O3, WO3",,10.1017/S088571560001112X,2000,,FALSE
In-Ag-O,mp-22660,[202429],InAgO2,0,R-3m,n,n,,,,{},{},,,"Ag2O, In2O3, NaOH",hydrothermal,10.1016/0022-4596(87)90268-4,1967,,FALSE
In-Ag-O,mp-20329,[95671],InAgO2,6.91E-05,P6_3/mmc,n,?,,,,{},{},,,,,10.1016/S1293-2558(02)01363-8,2002,modelling of mp-22660,FALSE
In-Au-O,mp-19723,[95672],InAuO2,0.015946763,P6_3/mmc,?,?,,,,{},{},,,,,10.1016/S1293-2558(02)01363-8,2002,modelling of delafossite AuInO2,FALSE
In-Bi-O,mp-561102,[171757],InBiO3,0.039911605,Pnma,y,?,,,,{},{},,,,,10.1021/cm052627s,2006,other refinement of mp-556892,FALSE
In-Bi-O,mp-545379,[158758],InBiO3,0.496068981,Pm-3m,y,?,,,,{},{},,,,,10.1103/PhysRevB.75.245209,2007,modelling of cubic BiInO3,FALSE
In-Bi-O,mp-556892,[171756],InBiO3,0.028937423,Pna2_1,y,y,1273,6,,{},"{""step1"": {""cool rate"": [], ""cool time"": [], ""cool medium"": [], ""cool type"": [""quench""], ""end temperature"": [""RT""], ""remark"": []}}",2,,"Bi2O3, In2O3",,10.1021/cm052627s,2006,inhomogeneous,FALSE
In-Cu-O,mp-21617,[2201],In2Cu2O5,0.079507246,Pna2_1,y,y,1223,AP,,{},{},1,,"In2O3, Cu2O3",,10.1016/0921-4526(89)90067-7,1989,,FALSE
In-Cu-O,mp-20476,[39475],In2CuO4,0.247533693,I4/mmm,n,n,,,,{},{},,,"In2O3, BaO, K2O, SrO, CuO",from melt,"Sverkhprovodimost: Fizika, Khimiya, Tekhnika 4, 563 (1991)",1991,from abstract; 10.1007/s10973-012-2237-2 tried to synthesized with solid state synthresis but failed,FALSE
In-Cu-O,mp-549158,"[95670, 186620]",InCuO2,0.005294475,P6_3/mmc,n,?,,,,{},{},,,,,10.1016/S1293-2558(02)01363-8,2002,modelling of 2H CuInO2,FALSE
In-Cu-O,mp-20930,"[91856, 91058, 55687, 91855, 186619]",InCuO2,0.005283976,R-3m,n,n,,,,{},{},,,"CuCl, LiInO2",ion exchange,10.1006/jssc.1999.8603,2000,,FALSE
In-Fe-O,mp-20693,[157323],InFe2O4,0.093960129,R-3m,y,y,1273,0,vacuum,{},{},1,,"In2O3, Fe, Fe2O3",,chemistry.coe21.kyoto-u.ac.jp/coe/sozai/h18_poster/060716_poster_abst.pdf,2007,,FALSE
In-Fe-O,mp-21094,"[80469, 71010]",InFeO3,0.049019012,P6_3/mmc,y,n,,,,{},{},,,"In(OH)3, Fe(OH)3, NH3",coprecipitation,10.1016/0025-5408(88)90060-8,1988,"other phase of LiNbO3-type InFeO3, which can be synthesized via high pressure solid state synthesis: 10.1021/acs.chemmater.6b02783",TRUE
In-Ga-O,mp-8098,[30339],InGaO3,0.001990223,P6_3/mmc,y,y,,,,{},{},,,,,10.1016/0022-1902(68)80277-5,1968,"high pressure phase of C2/c InGaO3, which can be synthesized via solid state synthesis",FALSE
In-Ge-O,mp-5280,"[239592, 409548, 74896, 20053]",In2Ge2O7,0,C2/m,y,y,1473,AP,,{},{},1,,"In2O3, GeO2",,10.1039/C5RA04587H,2015,,FALSE
In-Ge-O,mp-1190319,[239593],In2Ge2O7,0.020872797,Fd-3m,y,y,,,,{},{},,,,,10.1039/C5RA04587H,2015,high pressure phase of mp-5280,FALSE
In-Mo-O,mp-705134,[27723],In2Mo3O12,0,P2_1/c,y,y,1053,AP,,"{""step1"": {""grind method"": [""ball milling""], ""wet/dry"": [], ""liquid"": [""ethanol""]}}",{},2,,"In2O3, MoO3",,10.1016/j.ceramint.2017.06.053,2017,,FALSE
In-Mo-O,mp-1204440,[401481],In5Mo18O28,0.544712196,P2_1/c,y,y,1423,0,vacuum,{},{},2,,"In, Mo, MoO2",,10.1002/zaac.19956210711,1995,,TRUE
In-Re-O,mp-13192,[245005],In6ReO12,0.064386935,R-3,y,y,1573,5,,"{""step1"": {""grind method"": [""agate mortar""], ""wet/dry"": [], ""liquid"": [""acetone""]}}","{""step1"": {""cool rate"": [], ""cool time"": [], ""cool medium"": [], ""cool type"": [""furnace cool""], ""end temperature"": [""RT""], ""remark"": []}}",1,,"In2O3, ReO3",,10.1016/j.jssc.2006.07.041,2006,,FALSE
In-Rh-O,mp-1203220,"[237349, 237352]",InRhO3,0.039285745,P2_1/c,y,y,1500,6,,{},"{""step1"": {""cool rate"": [], ""cool time"": [], ""cool medium"": [], ""cool type"": [""quench""], ""end temperature"": [""RT""], ""remark"": []}}",1,,"In2O3, Rh2O3",,10.1021/ic401760m,2013,,FALSE
In-Rh-O,mp-1105819,[237351],InRhO3,0.072580261,Pnma,y,?,,,,{},{},,,,,10.1021/ic401760m,2013,other refinement of mp-1203220,FALSE
In-Se-O,mp-1199125,[422885],In2Se2O7,0,Pccn,y,y,773,AP,,{},"{""step1"": {""cool rate"": [{""value"": ""4"", ""unit"": ""C/h""}], ""cool time"": [], ""cool medium"": [], ""cool type"": [], ""end temperature"": [""RT""], ""remark"": []}}",1,,"In2O3, SeO2",,10.1016/j.jssc.2012.02.014,2012,,FALSE
In-Se-O,mp-30325,[95945],In2Se6O15,0,Pc,y,y,673,0,vacuum,"{""step1"": {""grind method"": [""agate mortar""], ""wet/dry"": [], ""liquid"": []}}",{},2,,"In2O3, SeO2",,10.1021/cm011694t,2002,inhomogeneous,FALSE
In-Se-O,mp-1200197,[72453],InSe2O6,0.1137438,P2_1/c,?,?,,,,{},{},,,,,,,ICSD 72453 contain hydrogen,N/A
In-Te-O,mp-28091,[36394],In2Te3O9,0,Pnma,y,y,823,,N2,{},{},1,,"In2O3, Te",,10.1016/0022-5088(71)90145-7,1971,,FALSE
In-Te-O,mp-504908,[60260],In2TeO6,0,P321,y,y,973,,air;O2,{},{},1,,"TeO2, In2O3",,10.1016/j.jallcom.2017.01.227,2017,excess TeO2,FALSE
In-Te-O,mp-22189,[245526],In6TeO12,0.010380783,R-3,y,y,1273,AP,,{},{},2,,"TeO2, Sb2O3",,10.1016/j.jssc.2006.12.031,2007,,FALSE
In-W-O,mp-694318,[99607],In2W3O12,0.054552076,P2_1/c,y,y,1473,AP,,"{""step1"": {""grind method"": [""agate mortar""], ""wet/dry"": [], ""liquid"": [""acetone""]}}",{},3,,"In2O3, WO3",,10.1016/j.jssc.2004.04.015,2004,,FALSE
In-W-O,mp-553953,[99606],In2W3O12,0.051928225,Pbcn,y,y,,,,{},{},,,,,10.1016/j.jssc.2004.04.015,2004,high temperature phase of mp-694318,FALSE
In-W-O,mp-20099,"[27197, 99605]",In6WO12,0.013663567,R-3,y,y,1473,AP,,"{""step1"": {""grind method"": [""agate mortar""], ""wet/dry"": [], ""liquid"": [""acetone""]}}",{},3,,"In2O3, WO3",,10.1016/j.jssc.2004.04.015,2004,,FALSE
Ir-Pb-O,mp-1190246,"[252126, 252127]",Ir2Pb2O7,0,Fd-3m,y,y,1073,AP,,{},{},1,,"IrO2, PbO",,10.1088/2053-1591/1/4/046304,2014,,FALSE
K-Ag-O,mp-572510,[200086],K3AgO2,0,P2_12_12_1,y,y,823,0,vacuum,{},{},1,y,"K2O, Ag2O",,"Revue de Chimie Minerale 14, 423 (1977)",1977,,TRUE
K-Ag-O,mp-1009048,[188532],KAgO,0.448759616,F-43m,y,?,,,,{},{},,,,,10.1016/j.ssc.2012.10.016,2013,modelling of cubic KAgO,FALSE
K-Ag-O,mp-3074,"[37324, 40154, 25744]",KAgO,0,I4/mmm,y,y,853,,Ar,{},{},1,,"Ag2O, K2O",,10.1002/zaac.19683580507,1968,"from abstract, product formed on wall, inhomogeneous",TRUE
K-Al-O,mp-1180933,[34026],K2Al2O7,0.485146089,Aea2,?,?,,,,{},{},,,,,,,ICSD 34026 contain hydrogen,N/A
K-Al-O,mp-9157,"[166540, 74968]",K3AlO3,0,C2/m,y,y,823,,,{},{},1,y,"K2O, KAlO2",,10.1002/zaac.19946200522,1994,,FALSE
K-Al-O,mp-1019803,[237856],KAl9O14,0.009877263,P2_1/c,n,n,,,,{},{},,,K3AlF6,flux,10.1021/cm3038476,2013,inhomogeneous,FALSE
K-Al-O,mp-5525,"[262971, 91842, 262972, 88774, 262969, 262970, 262967, 151882, 169481, 262968]",KAlO2,0,Pbca,y,y,1273,AP,,"{""step1"": {""grind method"": [""jasper mortar""], ""wet/dry"": [], ""liquid"": []}}",{},2,,"K2CO3, Al2O3",,10.1023/B:RUEL.0000032011.62018.67,2004,,FALSE
K-Al-O,mp-1084785,[262975],KAlO2,0.065873198,Fd-3m,y,y,,,,{},{},,,,,10.1107/S0108768112027462,2012,high temperature phase of mp-5525,FALSE