system,mp_id,icsd_ids,composition,e_above_hull,Spacegroup Number,solid_state_synthesized_composition,solid_state_synthesized_structure,sss_highest_temperature(K),sss_pressure(GPa),sss_atmosphere,sss_mixing_condition,sss_cooling_condition,sss_heating_step,single_crystal,sss_precursor,other_synthesis_method,reference,reference_year,comment,google_translate
Ba-Na-O,mp-1019519,[411905],Ba2NaO,0,Cmme,n,n,620,,,{},{},,,"BaO2, Ba, NaK",flux,10.1002/1521-3773(20011119)40:22<4220::AID-ANIE4220>3.0.CO;2-X,2001,,FALSE
Ba-Nb-O,mp-28675,[69991],Ba2Nb15O32,0,R-3,n,n,,,,{},{},,,"BaNb2O6, NbO, NbO2, B2O3",flux,10.1021/cm00015a031,1989,,FALSE
Ba-Nb-O,mp-19796,"[83896, 202750, 90404, 78023]",Ba2Nb5O9,0,P4/mmm,y,y,1813,,Ar,{},"{""step1"": {""cool rate"": [], ""cool time"": [], ""cool medium"": [], ""cool type"": [""furnace cool""], ""end temperature"": [""RT""], ""remark"": []}}",1,,"Nb2O5, Ba5Nb4O15",,10.1016/S0925-8388(96)02619-9,1997,,FALSE
Ba-Nb-O,mp-5360,"[74980, 74979]",Ba3Nb16O23,0,Cmmm,n,n,,,,{},{},,,"BaCO3, Nb2O5, acetylene soot",reduction,10.1016/0925-8388(94)90737-4,1994,,FALSE
Ba-Nb-O,mp-8846,[69993],Ba3Nb5O15,0.004817578,P4/mbm,n,n,,,,{},{},,,"NbO2, BaO, B2O3",flux,10.1021/cm00015a031,1991,,FALSE
Ba-Nb-O,mp-4564,"[73444, 73105]",Ba4Nb14O23,0,Cmmm,y,y,1775,,Ar,{},"{""step1"": {""cool rate"": [{""value"": ""1000"", ""unit"": ""C/h""}], ""cool time"": [], ""cool medium"": [], ""cool type"": [], ""end temperature"": [{""value"": ""1275"", ""unit"": ""K""}], ""remark"": []}, ""step2"": {""cool rate"": [], ""cool time"": [], ""cool medium"": [], ""cool type"": [""furnace cool""], ""end temperature"": [""RT""], ""remark"": []}}",1,,"Ba5Nb4O15, Nb2O5, Nb",,10.1107/S0108768193003088,1993,,FALSE
Ba-Nb-O,mp-3563,"[95192, 157477]",Ba5Nb4O15,0,P-3m1,y,y,1773,AP,,{},"{""step1"": {""cool rate"": [{""value"": ""1"", ""unit"": ""C/h""}], ""cool time"": [], ""cool medium"": [], ""cool type"": [], ""end temperature"": [{""value"": ""900"", ""unit"": ""C""}], ""remark"": []}, ""step2"": {""cool rate"": [], ""cool time"": [], ""cool medium"": [], ""cool type"": [], ""end temperature"": [""RT""], ""remark"": []}}",2,,"BaCO3, Nb2O5",,10.1016/j.jpcs.2006.01.120,2006,,FALSE
Ba-Nb-O,mp-640553,[28253],BaNb2O6,0.037303026,Pmma,y,?,,,,{},{},,,,,10.1016/0025-5408(68)90030-5,1968,might be old refinement of mp-555050,FALSE
Ba-Nb-O,mp-555050,[39320],BaNb2O6,0.010336129,C222_1,y,y,,,,{},{},,,,,10.1143/JJAP.41.6045,2002,"high temperature phase of hexagonal BaNb2O6, which can be synthesized via solid state synthesis",FALSE
Ba-Nb-O,mp-28150,[39272],BaNb2O6,0,P2_1/c,y,y,,,,{},{},,,,,10.1080/01411599208222899,1991,"low temperature phase of hexagonal BaNb2O6, which can be synthesized via solid state synthesis",FALSE
Ba-Nb-O,mp-505517,[42006],BaNb4O6,0,P4/mmm,n,n,,,,{},{},,,"Nb, NbO, NbO2, Ba5Nb4O15, BaF2",flux,10.1016/0925-8388(91)90017-P,1991,,FALSE
Ba-Nb-O,mp-1191444,[68139],BaNb6O17,0.087631541,Immm,?,?,,,,{},{},,,,,,,ICSD 68139 contain hydrogen,N/A
Ba-Nb-O,mp-505078,[66344],BaNb7O9,0.000476208,P4/mmm,n,n,,,,{},{},,,"NbO2, Ba5Nb4O15, Nb, BaCl2",flux,10.1002/ange.19921040215,1992,,TRUE
Ba-Nb-O,mp-1205468,[69992],BaNb8O14,0.00043958,Pbca,n,n,,,,{},{},,,"NbO2, BaO.B2O3",flux,10.1021/cm00015a031,1989,,FALSE
Ba-Nb-O,mp-21644,[79976],BaNb8O14,0.003641052,Pbam,n,n,,,,{},{},,,,,10.1016/0925-8388(95)01597-3,1995,other phase of mp-1205468,FALSE
Ba-Nb-O,mp-3020,"[50275, 150792]",BaNbO3,0,Pm-3m,y,y,1473,0,vacuum,{},{},2,,"BaO, Ba5Nb4O15",,10.1016/0025-5408(94)00116-2,1995,,FALSE
Ba-Nd-O,mp-2892,"[81380, 427484, 96546, 78486, 81379]",BaNd2O4,0,Pnma,y,y,1673,,,"{""step1"": {""grind method"": [""mixed""], ""wet/dry"": [], ""liquid"": [""ethanol""]}}",{},2,,"BaCO3, Nd2O3",,10.2109/jcersj.102.583,1994,,TRUE
Ba-Ni-O,mp-27957,[30662],Ba3NiO4,0.056177428,R-3c,?,?,,,,{},{},,,,,10.1107/S0365110X51000441,1951,insufficient information: no synthesis information,FALSE
Ba-Ni-O,mp-541426,[78016],Ba6Ni5O15,0.001895616,R32,n,n,,,,{},{},,,"NiO, BaCO3, KOH",flux,10.1006/jssc.1994.1036,1993,,FALSE
Ba-Ni-O,mp-18991,[20898],BaNi4O8,0.025796384,R-3m,?,?,,,,{},{},,,,,"Kristallografiya 29, 450 (1984)",1984,translation issue: russian,FALSE
Ba-Ni-O,mp-18943,"[15760, 30660]",BaNiO2,0.117014089,Cmcm,y,y,1373,0,vacuum,{},"{""step1"": {""cool rate"": [], ""cool time"": [], ""cool medium"": [], ""cool type"": [""quench""], ""end temperature"": [""RT""], ""remark"": []}}",2,,"NiO, BaCO3",,10.1016/0022-4596(71)90070-3,1971,,TRUE
Ba-Ni-O,mp-19138,"[175, 30661]",BaNiO3,0.000139646,P6_3/mmc,y,y,1373,,"air,O2",{},{},2,,"BaCO3, NiO; BaCO3, NiCO3",,10.1107/S056774087600798X,1976,followed by annealing at high O2,FALSE
Ba-Ni-O,mp-19241,[15761],BaNiO3,0,P6_3mc,y,?,,,,{},{},,,,,10.1021/jacs.6b00036,2016,might be old refinement of mp-19138,FALSE
Ba-Np-O,mp-8558,[61316],BaNpO3,0,Pm-3m,?,?,,,,{},{},,,,,10.5445/IR/270000990,1964,translation issue: can't find information from the original paper (200+ pages and not english),FALSE
Ba-Os-O,mp-559484,[155552],Ba11Os4O24,0,I4_1/a,y,y,1270,,O2,{},{},1,,"BaO2, OsO2, Os",,10.1016/j.ssc.2005.09.025,2005,special: Ag2O as O2 donar in vacuum sealed ampoule,FALSE
Ba-Os-O,mp-781625,[237730],BaOsO3,0.083991857,Pm-3m,y,y,1873,17,,{},{},1,,"BaO2, OsO2, Os",,10.1021/ja4074408,2013,high temperature/pressure phase of hexagonal BaOsO3,FALSE
Ba-Pa-O,mp-8557,[61315],BaPaO3,0,Pm-3m,?,?,,,,{},{},,,,,10.5445/IR/270000990,1964,translation issue: can't find information from the original paper (200+ pages and not english),FALSE
Ba-Pb-O,mp-20098,"[27113, 62036, 66543, 66544]",Ba2PbO4,0,I4/mmm,?,?,,,,{},{},,,"Ba(NO3)2, Pb(NO3)2",sol-gel,10.1107/S0108270191006650,1991,,FALSE
Ba-Pb-O,mp-29242,[100791],Ba3PbO,0,Pm-3m,n,n,,,,{},{},,,,from melt,10.1016/0025-5408(80)90200-7,1980,,TRUE
Ba-Pb-O,mp-20461,"[67299, 51656]",BaPbO3,5.51E-05,C2/m,y,?,1203,AP,,{},{},,,"BaCO3, PbO2",,10.1007/BF01321817,1989,might be old refinement of mp-22230,FALSE
Ba-Pb-O,mp-22230,"[252031, 94313, 154038, 245600, 51657, 94312, 245601, 78681, 154039, 15933, 67811, 245602]",BaPbO3,0,Imma,y,y,1223,,O2,"{""step1"": {""grind method"": [""mixed""], ""wet/dry"": [], ""liquid"": [""ethanol""]}}","{""step1"": {""cool rate"": [], ""cool time"": [{""value"": ""15"", ""unit"": ""h""}], ""cool medium"": [], ""cool type"": [], ""end temperature"": [""RT""], ""remark"": []}}",4,,"BaCO3, PbO",,10.1016/j.jssc.2007.03.009,2007,,FALSE
Ba-Pb-O,mp-20991,"[51658, 245603]",BaPbO3,0.002841355,I4/mcm,y,y,,,,{},{},,,,,10.1016/j.jssc.2007.03.009,2007,high temperature phase of mp-22230,FALSE
Ba-Pb-O,mp-21280,"[245605, 72269, 245607, 245604, 245606]",BaPbO3,0.0276635,Pm-3m,y,y,,,,{},{},,,,,10.1016/j.jssc.2007.03.009,2007,high temperature phase of mp-22230,FALSE
Ba-Pb-O,mp-561598,[51659],BaPbO3,1.12370514,Pm-3m,y,y,,,,{},{},,,,,10.1016/j.jssc.2007.03.009,2007,high temperature phase of mp-22230; energy above hull looks suspcious,FALSE
Ba-Pd-O,mp-29352,[202812],Ba2PdO3,0,Immm,y,y,1273,AP,,{},"{""step1"": {""cool rate"": [], ""cool time"": [], ""cool medium"": [], ""cool type"": [""quench""], ""end temperature"": [""RT""], ""remark"": []}}",3,,"BaO2, Pd",,https://www.researchgate.net/profile/Armel_Le_Bail/publication/228093405_SYNTHESIS_AND_ABINITIO_STRUCTURE_DETERMINATION_FROM_X-RAY-POWDER_DATA_OF_BA2PDO3_WITH_SEVENFOLD_COORDINATED_BA2_-_STRUCTURAL_CORRELATIONS_WITH_K2NIF4_AND_BA2NIF6/links/59f59ea0458515547c21dc0a/SYNTHESIS-AND-ABINITIO-STRUCTURE-DETERMINATION-FROM-X-RAY-POWDER-DATA-OF-BA2PDO3-WITH-SEVENFOLD-COORDINATED-BA2-STRUCTURAL-CORRELATIONS-WITH-K2NIF4-AND-BA2NIF6.pdf,1988,,FALSE
Ba-Pd-O,mp-1182093,[39367],BaPdO5,0.201646171,P2/c,?,?,,,,{},{},,,,,,,ICSD 39367 contain hydrogen,N/A
Ba-Pr-O,mp-17412,"[78660, 427483]",BaPr2O4,0,Pnma,y,y,1423,,vacuum;H2/N2,{},{},1,,"BaO2, Pr, Pr2O3",,10.1017/S0885715600014494,1995,,FALSE
Ba-Pr-O,mp-6910,[163754],BaPrO3,0.115329884,R-3c,y,y,,,,{},{},,,,,10.1039/B820976F,2009,high temperature phase of mp-22705,FALSE
Ba-Pr-O,mp-6909,[163753],BaPrO3,0.129281607,Imma,y,y,,,,{},{},,,,,10.1039/B820976F,2009,high temperature phase of mp-22705,FALSE
Ba-Pr-O,mp-4783,"[52336, 163755]",BaPrO3,0.205866336,Pm-3m,y,y,,,,{},{},,,,,10.1039/B820976F,2009,high temperature phase of mp-22705,FALSE
Ba-Pr-O,mp-22705,"[2753, 163752]",BaPrO3,0.122119903,Pnma,y,y,1323,,O2,{},{},1,,"BaCO3, Pr2O3",,10.1107/S0567740872003462,1972,,FALSE
Ba-Pt-O,mp-8727,[65706],Ba4PtO6,0,R-3c,y,y,1370,AP,,{},"{""step1"": {""cool rate"": [], ""cool time"": [], ""cool medium"": [], ""cool type"": [""quench""], ""end temperature"": [""RT""], ""remark"": []}}",1,,"BaCO3, PtO2",,10.1107/S0108270189002076,1989,,FALSE
Ba-Pt-O,mp-29787,[51105],Ba5Pt2O9,0,P321,y,y,1423,AP,,"{""step1"": {""grind method"": [""agate mortar""], ""wet/dry"": [], ""liquid"": []}}",{},3,,"BaCO3, Pt",,10.1006/jssc.1998.7865,1998,,FALSE
Ba-Pu-O,mp-505025,[65033],BaPuO3,0,Pnma,y,y,1470,AP,,"{""step1"": {""grind method"": [""ball milling""], ""wet/dry"": [], ""liquid"": []}}","{""step1"": {""cool rate"": [{""value"": ""300"", ""unit"": ""C/h""}], ""cool time"": [], ""cool medium"": [], ""cool type"": [], ""end temperature"": [""RT""], ""remark"": []}}",1,,"BaCO3, PuO2",,10.1107/S0108768188008316,1988,,FALSE
Ba-Pu-O,mp-7143,[43768],BaPuO3,0.02456623,Pm-3m,y,?,,,,{},{},,,,,10.1016/0022-3115(60)90003-9,1960,old refinement of mp-505025,FALSE
Ba-Re-O,mp-1203847,[380391],Ba10Re3O22,0.051565245,C2/m,?,?,,,,{},{},,,,,,,ICSD 380391 contain hydrogen,N/A
Ba-Re-O,mp-1197806,[380392],Ba16Re6O37,0,C2/m,n,n,,,,{},{},,,"NH4ReO4, Ba(OH)2·8H2O ",flux,10.1016/j.solidstatesciences.2009.10.002,2010,,FALSE
Ba-Re-O,mp-505390,[202393],Ba2ReO5,0,Pnma,y,y,1073,,Ar,"{""step1"": {""grind method"": [""agate mortar""], ""wet/dry"": [], ""liquid"": []}}",{},1,,"Ba5Re2O12, Re",,10.1016/0022-4596(87)90142-3,1987,,FALSE
Ba-Re-O,mp-698206,[100777],Ba5Re3O16,0,P6_3cm,?,?,1173,,O2,{},{},,,"Re, BaO2",,10.1016/0025-5408(80)90028-8,1980,different stoichiometry: Ba5Re3O17,TRUE
Ba-Re-O,mp-1196150,[39800],BaRe2O12,0.374142658,P2_1/c,?,?,,,,{},{},,,,,,,ICSD 39800 contain hydrogen,N/A
Ba-Rh-O,mp-554262,[280769],Ba9Rh8O24,0,R-3c,n,n,,,,{},{},,,"BaCO3, Rh, K2CO3",flux,10.1039/B104513J,2001,special: Ba3RhTi2O9 can be synthesized via solid state synthesis,FALSE
Ba-Rh-O,mp-7685,[15520],BaRhO3,0.015502468,P6_3/mmc,y,y,1448,6.5,,{},"{""step1"": {""cool rate"": [], ""cool time"": [], ""cool medium"": [], ""cool type"": [""quench""], ""end temperature"": [""RT""], ""remark"": []}}",1,,"BaO2, RhO2",,10.1016/0022-4596(81)90309-1,1981,excess BaO2,FALSE
Ba-Ru-O,mp-559442,[150700],Ba2Ru7O18,0,P-1,n,n,,,,{},{},,,"RuO2, BaO2",hydrothermal,10.1016/j.jallcom.2004.04.035,2003,inhomogeneous,FALSE
Ba-Ru-O,mp-1200068,[81524],Ba4Ru3O10,0,P2_1/c,y,?,1673,AP,,{},{},,,"RuO2, BaCO3",,10.1016/0925-8388(96)80029-6,1996,old refinement of mp-17304,FALSE
Ba-Ru-O,mp-17304,"[90902, 189417]",Ba4Ru3O10,0.000686267,Cmce,y,y,1400,,CO/CO2,"{""step1"": {""grind method"": [""agate mortar""], ""wet/dry"": [], ""liquid"": []}}",{},1,,"BaCO3, RuO2",,10.1006/jssc.1999.8511,2000,,FALSE
Ba-Ru-O,mp-28908,[75386],Ba5Ru2O10,0,P6_3/mmc,n,n,,,,{},{},,,Ba5Ru2O9(O2),reduction,10.1016/S0925-8388(99)00036-5,1999,,FALSE
Ba-Ru-O,mp-561944,[61387],BaRu6O12,0.017659217,P4/n,y,y,1523,0,vacuum,"{""step1"": {""grind method"": [""agate mortar""], ""wet/dry"": [], ""liquid"": []}}",{},1,,"BaRuO3, RuO2, Ru",,10.1016/0025-5408(85)90149-7,1985,,FALSE
Ba-Ru-O,mp-3598,"[246019, 173866, 160287]",BaRuO3,0.027416444,P6_3/mmc,y,y,,,,{},{},,,,,10.1016/j.jssc.2007.07.031,2007,6H polymorph; high temperature/pressure phase of mp-5773,FALSE
Ba-Ru-O,mp-3597,"[172176, 84652]",BaRuO3,0.006214093,P6_3/mmc,y,y,,,,{},{},,,,,10.1006/jssc.1996.7200,1997,4H polymorph; high pressure phase of mp-5773,FALSE
Ba-Ru-O,mp-5773,"[172175, 150205, 110770, 51293, 91075, 10253]",BaRuO3,0,R-3m,y,y,1273,AP,,{},{},1,,"BaO2, Ru",,10.1021/ic50025a010,1965,,FALSE
Ba-Ru-O,mp-1201605,[168],BaRuO5,0,R-3c,?,?,,,,{},{},,,,,,,ICSD 168 contain hydrogen,N/A
Ba-Sb-O,mp-29911,[280592],Ba3Sb2O,0,Pbam,n,n,,,,{},{},,,"Ba, Sb, Sb2O3",melt,10.1107/S0108270101002785,2001,,FALSE
Ba-Sb-O,mp-31238,[413764],Ba3Sb2O6,0,P-1,n,n,,,,{},{},,,"Ba, Sb2O3",melt,10.1515/znb-2004-0503,2004,,TRUE
Ba-Sb-O,mp-555414,[415032],Ba3Sb4O,0,P2_1/c,?,?,923,,Ar,{},{},1,,"Ba, Sb2O3, RbSb",,10.1002/zaac.200400546,2005,insufficent information: purpose of RbSb for the solid state synthesis,TRUE
Ba-Sb-O,mp-9774,[402284],Ba4Sb2O,0,I4/mmm,y,y,1023,,Ar,{},"{""step1"": {""cool rate"": [], ""cool time"": [], ""cool medium"": [], ""cool type"": [""slow cooling""], ""end temperature"": [""RT""], ""remark"": []}}",1,,"Ba, Sb2O3",,10.1524/zkri.1996.211.7.478,1995,,FALSE
Ba-Sb-O,mp-9127,[74541],BaSb2O6,0,P-31m,y,y,1323,AP,,{},{},2,,"Sb2O3, Ba(NO3)2",,10.1039/C2CE25478F,2015,,FALSE
Ba-Sb-O,mp-1200875,[16387],BaSb3O6,0.119741872,P2_1/c,?,?,,,,{},{},,,,,,,ICSD 16387 contain hydrogen,N/A
Ba-Sc-O,mp-3564,"[201083, 35592]",BaSc2O4,0,C2/c,y,y,1673,AP,,"{""step1"": {""grind method"": [""agate mortar""], ""wet/dry"": [], ""liquid"": []}}",{},2,,"BaCO3, Sc2O3",,10.1039/C4DT00426D,2014,,FALSE
Ba-Se-O,mp-28536,[54157],BaSe2O5,0,P2_1/c,n,n,,,,{},{},,,"SeO2, BaSO3, SrCO3",hydrothermal,10.1007/PL00000101,1998,inhomogeneous,FALSE
Ba-Se-O,mp-6989,[54156],BaSeO3,0,P2_1/m,n,n,,,,{},{},,,"BaCO3, SeO2, FeCr2O4·2H2O",hydrothermal,10.1007/PL00000101,1998,inhomogeneous,FALSE
Ba-Se-O,mp-12010,[409810],BaSeO4,0,Pnma,n,n,,,,{},{},,,"BaCl2, Na2SeO4",gel,10.1524/ncrs.2005.220.14.5,2005,,FALSE
Ba-Sm-O,mp-17960,"[427485, 78485]",BaSm2O4,0,Pnma,y,y,1673,,Ar,"{""step1"": {""grind method"": [""mixed""], ""wet/dry"": [], ""liquid"": [""ethanol""]}}",{},2,,"BaCO3, Sm2O3",,10.2109/jcersj.102.583,1994,,TRUE
Ba-Sn-O,mp-3359,"[27115, 81850, 84246, 81849]",Ba2SnO4,0,I4/mmm,y,y,1173,AP,,{},{},1,,"BaCO3, SnO2",,10.1071/C97117,1997,,FALSE
Ba-Sn-O,mp-29243,"[100792, 181090]",Ba3SnO,0,Pm-3m,n,n,,,,{},{},,,"SnO2, BaO",from melt,10.1016/0025-5408(80)90200-7,1980,,TRUE
Ba-Sn-O,mp-3163,"[239582, 186899, 180138, 181091, 190601, 188149, 424820, 43138, 185615, 27049, 184338]",BaSnO3,0,Pm-3m,y,y,,,,{},{},,,"BaCO3, SnO2",,10.1016/j.jssc.2018.01.019,2018,,FALSE
Ba-Sr-O,mp-1079882,[180200],Ba3SrO4,0.036783493,Pm-3m,?,?,,,,{},{},,,,,10.1016/j.jallcom.2010.11.097,2011,modelling of Ba0.75Sr0.25O,FALSE
Ba-Sr-O,mp-984729,[180202],BaSr3O4,0.044249776,Pm-3m,?,?,,,,{},{},,,,,10.1016/j.jallcom.2010.11.097,2011,modelling of Ba0.25Sr0.75O,FALSE
Ba-Sr-O,mp-753619,[180201],BaSrO2,0.053527002,P4/mmm,?,?,,,,{},{},,,,,10.1016/j.jallcom.2010.11.097,2011,modelling of Ba0.5Sr0.5O,FALSE
Ba-Ta-O,mp-28457,[50050],Ba2Ta15O32,0,R-3,y,y,1723,0,vacuum,{},"{""step1"": {""cool rate"": [{""value"": ""50"", ""unit"": ""C/h""}], ""cool time"": [], ""cool medium"": [], ""cool type"": [], ""end temperature"": [{""value"": ""1200"", ""unit"": ""C""}], ""remark"": []}, ""step2"": {""cool rate"": [], ""cool time"": [], ""cool medium"": [], ""cool type"": [], ""end temperature"": [""RT""], ""remark"": []}}",1,y,"Ta, Ta2O5, BaCl2",,10.1016/S0025-5408(97)00066-4,1997,,FALSE
Ba-Ta-O,mp-15021,[79810],Ba3Ta5O15,0,P4/mbm,y,y,1773,,,{},{},1,,"Ba5Ta4O15, Ta2O5, Ta",,10.1021/cm00050a022,1995,,FALSE
Ba-Ta-O,mp-1192906,[166900],Ba4Ta2O9,0,P6_3/m,y,y,,,,{},{},1,,,,10.1021/cm903170t,2009,"high temperature phase of ICSD-166901, which can be synthesized via solid state synthesis",FALSE
Ba-Ta-O,mp-504554,"[15429, 16028]",Ba5Ta4O15,0,P-3m1,y,y,1373,AP,,{},{},1,,"BaO2, Ta2O5",,10.1021/cm00050a022,1995,,FALSE
Ba-Ta-O,mp-561103,[27082],BaTa2O6,0,P6/mmm,y,y,,,,{},{},,,,,10.1016/0025-5408(67)90029-3,1967,"high temperature phase of tetragonal BaTa2O6, which can be synthesized via solid state synthesis: 10.1016/j.solidstatesciences.2014.08.015",FALSE
Ba-Ta-O,mp-1189316,[40946],BaTa4O14,0.399853374,R-3m,?,?,,,,{},{},,,,,,,ICSD 40946 contain hydrogen,N/A
Ba-Tb-O,mp-18258,"[78661, 427488]",BaTb2O4,0,Pnma,y,y,1423,,vacuum;H2/N2,{},{},1,,"BaO2, Tb, Tb4O7",,10.1017/S0885715600014494,1995,excess BaO2,FALSE
Ba-Tb-O,mp-5735,"[89028, 99474, 99473, 86736, 99472, 86737]",BaTbO3,0.088941744,Imma,y,y,1323,AP,,{},"{""step1"": {""cool rate"": [], ""cool time"": [], ""cool medium"": [], ""cool type"": [""furnace cool""], ""end temperature"": [""RT""], ""remark"": []}}",1,,"BaCO3, Tb4O7",,10.1016/j.jssc.2003.12.022,2004,,FALSE
Ba-Tb-O,mp-2929,"[99478, 99477, 99479]",BaTbO3,0.117617598,Pm-3m,y,y,,,,{},{},,,,,10.1016/j.jssc.2003.12.022,2004,high temperature phase of mp-5735,FALSE
Ba-Tb-O,mp-2939,"[59596, 99475, 99476]",BaTbO3,0.094572219,I4/mcm,y,y,,,,{},{},,,,,10.1016/j.jssc.2003.12.022,2004,high temperature phase of mp-5735,FALSE
Ba-Tb-O,mp-548824,[2752],BaTbO3,0.090352194,R-3c,y,?,,,,{},{},,,,,10.1107/S0567740872003462,1972,old refinement of mp-5735,FALSE
Ba-Tc-O,mp-555174,[109077],BaTcO3,0,P6_3/mmc,y,y,1498,0,vacuum,{},"{""step1"": {""cool rate"": [], ""cool time"": [], ""cool medium"": [""water""], ""cool type"": [""quench""], ""end temperature"": [""RT""], ""remark"": []}}",2,,"TcO2, BaO",,10.1016/0022-1902(64)80152-4,1964,inhomogeneous,FALSE
Ba-Te-O,mp-1078191,[428396],Ba2TeO,0,P4/nmm,n,n,,,,{},{},,,"BaO, Te, Ba",flux,10.1016/j.jssc.2014.11.003,2015,,FALSE
Ba-Te-O,mp-17009,[100797],Ba3Te2O9,0,P6_3/mmc,y,y,1073,,O2,{},{},1,,"BaCO3, TeO2",,10.1016/0025-5408(81)90001-5,1981,,FALSE
Ba-Te-O,mp-28102,[37069],Ba3Te4O11,0,P-1,y,y,1273,AP,,{},{},1,,"BaCO3, TeO2",,10.1107/S0108270183004576,1983,,FALSE
Ba-Te-O,mp-27254,"[239063, 239062, 8017]",BaTe2O6,0.000484608,Cmcm,y,y,923,AP,,{},{},2,,"BaCO3, TeO2",,10.1021/acs.inorgchem.5b02174,2016,,FALSE
Ba-Te-O,mp-1195118,[431435],BaTe3O7,0.00067414,P2_1/c,n,n,,,,{},{},,,"TeO2, Ba(OH)2·8H2O",hydrothermal,10.1021/ja017648b,2002,,FALSE
Ba-Te-O,mp-1195016,[252505],BaTe4O9,0,C2/c,y,y,773,AP,,"{""step1"": {""grind method"": [""ball milling""], ""wet/dry"": [], ""liquid"": []}}",{},1,,"BaO, TeO2; BaCO3, TeO2",,10.1016/j.matlet.2006.07.141,2007,,FALSE
Ba-Te-O,mp-556021,[10107],BaTeO3,0.009290847,Pnma,y,y,1050,,Ar,{},{},,,"TeO2, BaCO3",,10.1006/jcht.2001.0923,2002,"other phase of mp-5431, which can be synthesized via solid state reaction",FALSE
Ba-Te-O,mp-5431,"[4320, 10106]",BaTeO3,0,P2_1/m,y,y,973,AP,,{},"{""step1"": {""cool rate"": [], ""cool time"": [{""value"": ""12"", ""unit"": ""hour""}], ""cool medium"": [], ""cool type"": [], ""end temperature"": [""RT""], ""remark"": []}}",1,,"BaO, TeO2",,10.1209/0295-5075/98/66006,2012,,FALSE
Ba-Th-O,mp-8037,[29110],BaThO3,0.083444388,Pm-3m,y,?,,,,{},{},,,,,10.1007/BF01504169,1934,old refinement of mp-1189614,FALSE
Ba-Th-O,mp-1189614,[189333],BaThO3,0,Pnma,y,y,1523,AP,,{},{},1,,"ThO2, BaCO3",,10.1016/j.jallcom.2017.08.200,2017,,FALSE
Ba-Ti-O,mp-28917,[75519],Ba2Ti13O22,0,Cmce,y,y,1853,,Ar,{},"{""step1"": {""cool rate"": [], ""cool time"": [], ""cool medium"": [], ""cool type"": [""slow cooling""], ""end temperature"": [""RT""], ""remark"": []}}",1,,"BaTiO3, Ti2O3, TiO",,10.1006/jssc.1994.1385,1994,,FALSE
Ba-Ti-O,mp-7733,"[1365, 300030]",Ba2Ti6O13,0,C2/m,n,n,,,,{},{},,,,plasma torch,10.1002/zaac.19774350132,1977,,FALSE
Ba-Ti-O,mp-560731,"[35711, 35582]",Ba2Ti9O20,0.005001445,P-1,y,y,1623,AP,,{},"{""step1"": {""cool rate"": [], ""cool time"": [{""value"": ""36"", ""unit"": ""hour""}], ""cool medium"": [], ""cool type"": [], ""end temperature"": [{""value"": ""700"", ""unit"": ""C""}], ""remark"": []}}",1,,"BaCO3, TiO2",,10.1016/0022-4596(83)90216-5,1983,,FALSE
Ba-Ti-O,mp-3397,"[2625, 15450]",Ba2TiO4,0,P2_1/c,y,y,1573,,Ar,{},{},1,,"BaCO3, TiO2",,10.1007/BF00720124,1991,sometimes formed as impurity in the solid state reaction to form BaTiO3,FALSE
Ba-Ti-O,mp-554529,[29389],Ba2TiO4,0.001380613,Pna2_1,y,y,,,,{},{},,,,,10.1107/S0108270184003619,1984,other phase of mp-3397,FALSE
Ba-Ti-O,mp-15761,[280159],Ba4Ti12O27,0.002791219,C2/m,y,y,1573,0.00006,Ar,"{""step1"": {""grind method"": [""agate mortar""], ""wet/dry"": [], ""liquid"": []}}",{},1,,"BaCO3, TiO2",,10.1107/S0108270198010919,1999,,FALSE
Ba-Ti-O,mp-29298,[300032],Ba4Ti13O30,0,Cmce,y,y,1573,AP,,{},{},1,,"BaTiO3, TiO2",,10.1016/0022-4596(74)90087-5,1974,,FALSE
Ba-Ti-O,mp-556729,"[14299, 49576]",Ba6Ti17O40,0.009496759,C2/c,n,n,,,,{},{},,,"BaO, TiO2",from melt,10.1107/S0567740870004673,1970,inhomogeneous,FALSE