system,mp_id,icsd_ids,composition,e_above_hull,Spacegroup Number,solid_state_synthesized_composition,solid_state_synthesized_structure,sss_highest_temperature(K),sss_pressure(GPa),sss_atmosphere,sss_mixing_condition,sss_cooling_condition,sss_heating_step,single_crystal,sss_precursor,other_synthesis_method,reference,reference_year,comment,google_translate
Li-Pd-O,mp-7608,"[61199, 19007]",Li2PdO2,0,Immm,y,y,1073,AP,,{},{},1,,"Li2CO3, Pd(Ac)2",,10.1016/0022-4596(73)90217-X,1973,excess Li2CO3,FALSE
Li-Pr-O,mp-5446,"[154704, 202363, 154705]",Li2PrO3,0.153050874,Cmmm,y,y,973,,O2,{},{},1,,"Li2O, Pr6O11",,10.1016/j.jallcom.2005.08.100,2006,excess Li2O,FALSE
Li-Pr-O,mp-8424,[49024],Li8PrO6,0.070636658,R-3,y,y,973,,O2,{},{},1,,"Li2O, Pr6O11",,10.1006/jssc.1996.7193,1997,excess Li2O,FALSE
Li-Pr-O,mp-10620,[56752],LiPrO2,0.009265335,P2_1/c,y,y,1173,,Ar/H2,"{""step1"": {""grind method"": [""agate mortar""], ""wet/dry"": [], ""liquid"": []}}",{},1,,"Li2CO3, Pr2O3",,10.1021/cm010728u,2002,excess Li2CO3; inhomogeneous,FALSE
Li-Pt-O,mp-8610,[61218],Li8PtO6,0,R-3,n,n,,,,{},{},,,"Na3LiPt2O6, Li2O",ion exchange,10.1002/zaac.19865360510,1986,,TRUE
Li-Re-O,mp-554540,[30590],Li5ReO6,6.27E-05,P3_112,y,?,,,,{},{},,,,,10.1016/0925-8388(94)90748-X,1994,old refinement of mp-5061,FALSE
Li-Re-O,mp-5061,"[74981, 38381, 74982]",Li5ReO6,0,C2/m,y,y,998,,O2,{},{},3,,"Li2O2, Re",,10.1016/0925-8388(94)90748-X,1994,,FALSE
Li-Re-O,mp-8189,[35012],LiReO3,0.074833048,R3c,n,n,,,,{},{},,,Li2ReO3,delithiation,10.1016/0022-4596(82)90004-4,1982,,FALSE
Li-Re-O,mp-540946,[37118],LiReO4,0,P-1,y,y,573,,,{},"{""step1"": {""cool rate"": [{""value"": ""50"", ""unit"": ""C/h""}], ""cool time"": [], ""cool medium"": [], ""cool type"": [], ""end temperature"": [""RT""], ""remark"": []}}",3,,"Li2O2, Re2O7",,10.1002/zaac.19835000504,1983,,TRUE
Li-Re-O,mp-1193645,[411646],LiReO5,0.416850138,P2_1/c,?,?,,,,{},{},,,,,,,ICSD 411646 contain hydrogen,N/A
Li-Rh-O,mp-14476,[59179],LiRhO2,0.014244216,Fd-3m,y,y,1273,,,{},{},2,,"Li2O, Rh2O3",,10.1002/zaac.19865350404,1986,"beta phase; other phase of mp-14115, which can be synthesized via solid state synthesis",TRUE
Li-Rh-O,mp-14115,[29213],LiRhO2,0,R-3m,y,y,1123,,O2,{},"{""step1"": {""cool rate"": [{""value"": ""60"", ""unit"": ""C/h""}], ""cool time"": [], ""cool medium"": [], ""cool type"": [], ""end temperature"": [""RT""], ""remark"": []}}",1,,"LiOH, Rh(NO3)3",,10.1149/1.1410968,2001,,FALSE
Li-Ru-O,mp-4630,"[78721, 180367, 202611, 23409]",Li2RuO3,0.005305674,C2/m,y,y,1273,AP,,{},{},2,,"RuO2, Li2CO3",,10.1016/0022-4596(88)90357-X,1988,excess Li2CO3,FALSE
Li-Ru-O,mp-1193147,[290491],LiRu2O4,0.059047352,Pnma,n,n,,,,{},{},,,"NaRu2O4, LiI",ion exchange,10.1016/j.jpowsour.2013.01.119,2013,,FALSE
Li-Ru-O,mp-28254,[48007],LiRuO2,0.088258165,Pnnm,n,n,,,,{},{},,,,lithiation,10.1016/0022-4596(84)90321-9,1984,,FALSE
Li-Sb-O,mp-5769,"[279592, 82864]",Li3SbO4,0,P2/c,y,y,1273,AP,,{},{},2,,"Li2CO3, Sb2O5",,10.1039/JM9960601939,1996,,FALSE
Li-Sb-O,mp-29364,[203030],Li5SbO5,0,C2/m,y,y,1173,,O2,{},{},1,,"Li2CO3, Sb2O3",,10.1016/0025-5408(89)90181-5,1989,,FALSE
Li-Sb-O,mp-27453,[15631],Li7SbO6,0.022537069,R3,y,y,973,,O2,{},{},1,,"LiOH, Sb2O3",,10.1515/znb-1969-0222,1969,,TRUE
Li-Sb-O,mp-1102716,[181884],Li8SbO3,0.411286268,Pm-3m,?,?,,,,{},{},,,,,10.1016/j.ssc.2011.05.002,2011,modelling of Li2O0.75Sb0.25,FALSE
Li-Sb-O,mp-29892,[89903],LiSb3O8,0,P2_1/c,y,y,1173,AP,,{},{},2,,"Li2CO3, Sb2O3",,10.1039/B005915N,2000,,FALSE
Li-Sb-O,mp-4995,"[39574, 203032, 24051]",LiSbO3,0,Pnna,y,y,973,AP,,{},{},1,,"Li2CO3, Sb2O3",,10.1016/0025-5408(89)90195-5,1989,,FALSE
Li-Sc-O,mp-5840,"[36124, 31316]",LiScO2,0,I4_1/amd,y,y,1173,AP,,"{""step1"": {""grind method"": [""agate mortar""], ""wet/dry"": [], ""liquid"": []}}",{},1,,"Li2CO3, Sc2O3",,10.1021/cm010728u,2002,excess Li2CO3,FALSE
Li-Se-O,mp-1194726,[428746],Li2Se2O7,0,Pnma,?,?,573,AP,,{},{},,,"H2SeO4, Li2CO3",,10.1002/zaac.201500182,2015,insufficent information,FALSE
Li-Se-O,mp-4855,"[67234, 246302]",Li2SeO4,0,R-3,n,n,,,,{},{},,,"NH4LiSeO4, H2O",hydrothermal,10.1107/S0108270188009795,1989,,FALSE
Li-Se-O,mp-667309,[48106],Li2SeO4,0.536172157,P1,n,?,,,,{},{},,,,,10.1016/0022-4596(84)90230-5,1984,other refinement of mp-4855,FALSE
Li-Se-O,mp-4426,"[92395, 410714]",Li4SeO5,0,C2/c,y,y,773,0,vacuum,{},{},1,,"Li2O, Li2SeO4",,10.1002/(SICI)1521-3749(200005)626:5<1174::AID-ZAAC1174>3.0.CO;2-R,2000,,TRUE
Li-Sm-O,mp-7800,[23511],LiSmO2,0.008716071,P2_1/c,y,y,1173,AP,,"{""step1"": {""grind method"": [""agate mortar""], ""wet/dry"": [], ""liquid"": []}}",{},1,,"Li2CO3, Sm2O3",,10.1021/cm010728u,2002,excess Li2CO3; inhomogeneous,FALSE
Li-Sn-O,mp-3540,"[21032, 21053]",Li2SnO3,0,C2/c,y,y,1373,AP,,"{""step1"": {""grind method"": [""agate mortar""], ""wet/dry"": [], ""liquid"": []}}","{""step1"": {""cool rate"": [], ""cool time"": [], ""cool medium"": [""air""], ""cool type"": [""quench""], ""end temperature"": [""RT""], ""remark"": []}}",2,,"Li2CO3, SnO2",,10.1016/j.jallcom.2017.02.079,2017,,FALSE
Li-Sn-O,mp-1180644,[85487],Li2SnO6,0.622568969,P2_1/c,?,?,,,,{},{},,,,,,,ICSD 85487 contain hydrogen,N/A
Li-Sn-O,mp-4527,"[15104, 1180, 28131]",Li8SnO6,0,R-3,y,y,1173,,,{},{},1,,"Li2O, SnO2",,10.1016/0025-5408(79)90044-8,1979,,TRUE
Li-Ta-O,mp-558294,[30584],Li3TaO4,0.000522215,P2/c,y,y,,,,{},{},,,,,10.1016/0022-4596(83)90101-9,1983,"alpha phase; other phase of mp-3151, which can be synthesized via solid state synthesis",FALSE
Li-Ta-O,mp-3151,"[281301, 37126]",Li3TaO4,0,C2/c,y,y,1273,AP,,{},{},3,,"LiTaO3, Li2CO3",,10.1016/0022-4596(83)90101-9,1983,beta phase,FALSE
Li-Ta-O,mp-28891,[74950],Li7TaO6,0.032552051,R3,y,y,973,,Ar,{},{},1,,"Ta2O5, Li2O",,10.1016/j.ssi.2020.115226,2020,inhomgeneous,FALSE
Li-Ta-O,mp-7638,"[1318, 493]",LiTa3O8,0,C2/c,y,y,1298,AP,,"{""step1"": {""grind method"": [""mixed""], ""wet/dry"": [], ""liquid"": [""acetone""]}}","{""step1"": {""cool rate"": [], ""cool time"": [], ""cool medium"": [], ""cool type"": [""slow cooling""], ""end temperature"": [""RT""], ""remark"": []}}",1,,"LiTaO3, Ta2O5",,10.1107/S0567740877012540,1977,,FALSE
Li-Ta-O,mp-559908,[49513],LiTa3O8,0.011874803,Pmmn,y,y,1773,AP,,{},"{""step1"": {""cool rate"": [], ""cool time"": [], ""cool medium"": [], ""cool type"": [""quench""], ""end temperature"": [""RT""], ""remark"": []}}",2,,"LiTaO3, Ta2O5",,10.1016/0022-4596(84)90344-X,1984,"other phase of mp-7638, which can be synthesized via solid state synthesis",FALSE
Li-Ta-O,mp-1105326,[239382],LiTaO3,0.254644941,Pnma,y,?,,,,{},{},,,,,10.1063/1.4941383,2016,other refinement of mp-1105280,FALSE
Li-Ta-O,mp-3666,"[239373, 239376, 239379, 239375, 239374, 239377, 239372, 239378, 164259, 9537, 84579, 84226, 9540, 108874]",LiTaO3,0,R3c,y,y,1223,AP,,"{""step1"": {""grind method"": [""ball milling""], ""wet/dry"": [], ""liquid"": [""ethanol""]}}","{""step1"": {""cool rate"": [{""value"": ""180"", ""unit"": ""C/h""}], ""cool time"": [], ""cool medium"": [], ""cool type"": [], ""end temperature"": [""RT""], ""remark"": []}}",1,,"Li2CO3, Ta2O5",,10.1111/j.1551-2916.2012.05267.x,2012,,FALSE
Li-Ta-O,mp-1105280,"[239380, 239383, 239384]",LiTaO3,0.110433831,Pnma,y,y,,,,{},{},,,,,10.1063/1.4941383,2016,high pressure phase of mp-3666,FALSE
Li-Tb-O,mp-562387,[60769],Li6Tb2O7,0.101654404,P2_1/c,y,y,1023,,,{},{},1,,"Li2O2, Tb4O7",,10.1002/zaac.19865390812,1986,,TRUE
Li-Tb-O,mp-8425,[49026],Li8TbO6,0.049760687,R-3,y,y,973,,O2,{},{},1,,"Li2O, Tb4O7",,10.1006/jssc.1996.7193,1997,excess Li2O,FALSE
Li-Tb-O,mp-7137,[21013],LiTbO2,0,Pnma,y,y,,,,{},{},,,,,10.1021/cm010728u,2002,"gamma phase; insufficient information: the paper suggests they have synthesized both gamma and beta phase seperately, but only one set of experimental setup was provided",FALSE
Li-Te-O,mp-27811,[26451],Li2Te2O5,0.008403897,P2_1/c,?,?,,,,{},{},,,,,10.1016/0022-4596(81)90497-7,1981,alpha phase; insufficent information,FALSE
Li-Te-O,mp-555939,[26452],Li2Te2O5,0,Pccn,?,?,,,,{},{},,,,,10.1016/0022-4596(81)90497-7,1981,beta phase; insufficent information,FALSE
Li-Te-O,mp-559554,[38416],Li2TeO3,0.002726183,C2/m,y,?,,,,{},{},,,,,10.1002/crat.2170180114,1983,other refinement of mp-27231,FALSE
Li-Te-O,mp-27231,[4317],Li2TeO3,0,C2/c,y,n,,,,{},{},,,,from melt,10.1002/zaac.19754110203,1975,"might be other phase of orthorhombic Li2TeO3, which can be synthesized via solid state synthesis: 10.1007/s10973-017-6623-7",FALSE
Li-Te-O,mp-13843,[1485],Li2TeO4,0,P4_122,y,y,920,,O2,"{""step1"": {""grind method"": [""pestle and mortar""], ""wet/dry"": [], ""liquid"": []}}",{},2,,"Li2CO3, TeO2",,10.1007/s10973-017-6623-7,2018,,FALSE
Li-Te-O,mp-4804,"[2403, 202326]",Li4TeO5,0,P-1,y,y,973,,,{},{},1,,"Li2O, TeO3",,10.1016/0022-5088(87)90176-7,1987,,TRUE
Li-Te-O,mp-7941,"[26297, 40247]",Li6TeO6,0,R-3,y,y,973,,O2,{},{},1,,"LiOH, TeO2",,10.1515/znb-1969-0535,1969,,TRUE
Li-Ti-O,mp-1190132,"[193803, 426263]",Li2Ti3O7,0.016561362,P2_1/m,y,n,,,,{},{},,,,ion excahnge,10.1021/cm4032336,2013,"other phase of ramsdellite Li2Ti3O7, which can be synthesized via solid state synthesis: 10.2109/jcersj.102.378",FALSE
Li-Ti-O,mp-1190625,"[186995, 182966]",Li2Ti6O13,0.017332966,C2/m,n,n,,,,{},{},,,"Na2Ti6O13, LiNO3",ion excahnge,10.1039/C2DT31665J,2012,,FALSE
Li-Ti-O,mp-2931,"[261238, 261236, 162215, 15150, 261239]",Li2TiO3,0,C2/c,y,y,1273,,"air;air,H2/N2","{""step1"": {""grind method"": [""ball milling""], ""wet/dry"": [], ""liquid"": []}}","{""step1"": {""cool rate"": [], ""cool time"": [], ""cool medium"": [], ""cool type"": [""furnace cool""], ""end temperature"": [""RT""], ""remark"": []}}",2,,"Li2CO3, TiO2",,10.1016/j.ssi.2006.11.002,2007,,FALSE
Li-Ti-O,mp-558256,[151917],Li3Ti4O8,0.127011132,P2,?,?,,,,{},{},,,,,10.1016/j.ssi.2004.09.050,2004,modelling of  Li-intercalated rutile TiO2,FALSE
Li-Ti-O,mp-9172,[75164],Li4TiO4,0,Cmcm,y,y,1173,,Ar,{},{},1,,"Li2CO3, TiO2",,10.1006/jssc.1994.1266,1994,,FALSE
Li-Ti-O,mp-1192813,[182581],LiTi2O4,0.04532018,Pmn2_1,y,?,,,,{},{},,,,,10.1021/jz200718e,2011,modelling of  Li-intercalated anatase TiO2,FALSE
Li-Ti-O,mp-5670,"[72859, 78482, 154982, 81329, 15789, 48127]",LiTi2O4,0,Fd-3m,y,y,1123,,Ar/H2,{},{},1,,"Li2TiO3, Ti2O3, TiO2",,10.1016/0379-6779(94)02980-D,1995,,FALSE
Li-Ti-O,mp-1193296,[182579],LiTi2O4,0.025929167,Pnnm,y,?,,,,{},{},,,,,10.1021/jz200718e,2011,modelling of  Li-intercalated anatase TiO2,FALSE
Li-Ti-O,mp-977334,[182580],LiTi2O4,0.032247191,P2_1/m,y,?,,,,{},{},,,,,10.1021/jz200718e,2011,modelling of  Li-intercalated anatase TiO2,FALSE
Li-Ti-O,mp-6944,[48128],LiTiO2,0.028086695,Fd-3m,n,n,,,,{},{},,,,lithiation,10.1016/0022-4596(84)90228-7,1984,,FALSE
Li-Ti-O,mp-38280,[164158],LiTiO2,0,I4_1/amd,n,n,,,,{},{},,,,,10.1039/B823142G,2009,anatase phase; nano; other phase of mp-6944,FALSE
Li-Tl-O,mp-27483,[16219],Li5TlO4,0,P4_2/nmc,y,y,873,AP,,{},"{""step1"": {""cool rate"": [], ""cool time"": [], ""cool medium"": [], ""cool type"": [""furnace cool""], ""end temperature"": [""RT""], ""remark"": []}}",1,,"Li2O, Tl2O3",,10.1016/0167-2738(87)90025-7,1987,excess Li2O,FALSE
Li-Tl-O,mp-8179,[33633],LiTlO2,0.03466177,I4_1/amd,y,y,,,,{},{},,,,,10.1002/zaac.19613070309,1961,"beta phase; high temperature phase of alpha LiTlO2, which can be synthesized via solid state reaction",TRUE
Li-U-O,mp-9607,[200297],Li2UO4,0,Pnma,y,y,1073,AP,,{},{},1,,"Li2CO3, UO3",,10.1016/0022-1902(65)80440-7,1965,,FALSE
Li-U-O,mp-7724,[20578],Li2UO4,0.18495578,I4/mmm,y,?,,,,{},{},,,,,10.1016/0022-1902(78)80308-X,1978,old refinement of mp-9607,FALSE
Li-U-O,mp-551675,[109090],Li3UO4,0,I4/mmm,y,y,1073,,H2,{},{},1,,"Li2UO4, Li2CO3",,10.1016/0022-4596(92)90293-5,1992,,FALSE
Li-U-O,mp-7714,"[22202, 20452]",Li4UO5,0,I4/m,y,y,1273,AP,,{},{},1,,"Li2UO4, Li2CO3",,10.1016/0022-1902(64)80311-0,1964,excess Li2CO3,FALSE
Li-U-O,mp-8609,[25350],Li6UO6,0,R-3m,y,y,813,,O2,{},{},1,,"Li4UO5, Li2O",,10.1515/znb-1973-3-423,1973,alpha phase,TRUE
Li-U-O,mp-8007,[28528],LiUO3,0,R3c,y,y,1013,0,vacuum,{},{},1,,"Li2UO4, UO2",,10.1016/0022-4596(92)90303-D,1992,,FALSE
Li-V-O,mp-1198472,[280871],Li2V18O39,0.041812442,C2/m,n,n,,,,{},{},,,,lithiation,10.1107/S0108768101014264,2001,,FALSE
Li-V-O,mp-555660,[59305],Li2V6O13,0.064073857,C2/m,n,n,,,,{},{},,,,lithiation,10.1107/S0108270196015235,1997,,FALSE
Li-V-O,mp-581162,[109092],Li3VO4,0.002695536,Pnma,y,y,,,,{},{},,,,,10.1016/0022-4596(72)90127-2,1972,might be gamma phase; might be high temperature phase of mp-19219,FALSE
Li-V-O,mp-19219,"[239303, 193378, 19002]",Li3VO4,0,Pmn2_1,y,y,923,,N2,{},"{""step1"": {""cool rate"": [{""value"": ""300"", ""unit"": ""C/h""}], ""cool time"": [], ""cool medium"": [], ""cool type"": [], ""end temperature"": [""RT""], ""remark"": []}}",1,,"Li2CO3, V2O5",,10.1039/C5TA07823G,2016,beta phase,FALSE
Li-V-O,mp-28699,[67845],Li4V3O8,0.141253656,P2_1/m,n,n,,,,{},{},,,,lithiation,10.1016/0167-2738(93)90386-H,1993,,FALSE
Li-V-O,mp-19394,"[56720, 89351, 89349, 170768, 89346, 89348, 418091, 201818, 89347, 89344, 89352, 89350, 9214, 418090, 89345]",LiV2O4,0.034006556,Fd-3m,y,y,1023,AP,,{},"{""step1"": {""cool rate"": [], ""cool time"": [], ""cool medium"": [""air"", ""water""], ""cool type"": [""quench""], ""end temperature"": [""RT""], ""remark"": []}}",1,,"Li2CO3, V2O3, V2O5",,10.1103/PhysRevB.59.2609,1998,inhomogeneous,FALSE
Li-V-O,mp-19013,"[201974, 88642, 50980, 50982]",LiV2O5,0.060552802,Cmcm,y,n,,,,{},{},,,,,10.1006/jssc.1999.8318,1999,"delta phase; other phase of gamma LiV2O5, which can be synthesized via solid state synthesis: 10.1016/S0167-2738(97)00112-4",FALSE
Li-V-O,mp-627993,[88641],LiV2O5,0.070054108,Pnma,y,?,,,,{},{},,,,,10.1006/jssc.1999.8318,1999,modelling of mp-18934,FALSE
Li-V-O,mp-19408,"[23817, 9129, 27245, 25384]",LiV2O5,0.025369764,Pnma,y,?,,,,{},{},,,,,,,might be other refinement of mp-19013,N/A
Li-V-O,mp-555869,[88640],LiV2O5,0.051021389,Pmn2_1,y,?,,,,{},{},,,,,10.1006/jssc.1999.8314,1999,other refinement of mp-18934,FALSE
Li-V-O,mp-18934,"[88639, 88643]",LiV2O5,0.085626788,Pmmn,y,n,,,,{},{},,,,,10.1006/jssc.1999.8318,1999,"epsilon phase; high temperature phase of mp-19013; other phase of gamma LiV2O5, which can be synthesized via solid state synthesis: 10.1016/S0167-2738(97)00112-4",FALSE
Li-V-O,mp-27503,"[40417, 16689]",LiV3O8,0.003032523,P2_1/m,y,y,873,AP,,"{""step1"": {""grind method"": [""agate mortar""], ""wet/dry"": [], ""liquid"": []}}","{""step1"": {""cool rate"": [], ""cool time"": [], ""cool medium"": [""air"", ""ice""], ""cool type"": [""quench"", ""air cool""], ""end temperature"": [""RT""], ""remark"": []}}",1,,"Li2CO3, V2O5",,10.1016/j.matchemphys.2008.10.064,2009,,FALSE
Li-V-O,mp-505717,[280870],LiV6O13,0.057362267,C2/m,n,n,,,,{},{},,,,lithiation,10.1107/S0108768101014264,2001,,FALSE
Li-V-O,mp-19340,"[202541, 202540, 24594]",LiVO2,0,R-3m,y,y,1023,,Ar/H2,"{""step1"": {""grind method"": [""agate mortar""], ""wet/dry"": [], ""liquid"": []}}",{},2,,"Li2CO3, V2O5",,10.1016/0022-4596(86)90094-0,1986,excess Li2CO3,FALSE
Li-V-O,mp-19373,"[2899, 51443]",LiVO3,0.019674113,C2/c,y,y,860,AP,,"{""step1"": {""grind method"": [""agate mortar""], ""wet/dry"": [], ""liquid"": []}}",{},1,,"Li2CO3, V2O5",,10.1006/jssc.2000.9009,2001,,FALSE
Li-W-O,mp-27130,[1897],Li2W2O7,0.010069197,P-1,y,y,1073,AP,,{},"{""step1"": {""cool rate"": [{""value"": ""30-50"", ""unit"": ""C/h""}], ""cool time"": [], ""cool medium"": [], ""cool type"": [], ""end temperature"": [""RT""], ""remark"": []}}",1,,"Li2CO3, WO3",,10.1107/S0567740875005390,1975,,FALSE
Li-W-O,mp-706504,[21048],Li2W2O7,0.049716131,P-1,y,?,,,,{},{},,,,,,,might be old refinement of mp-27130,N/A
Li-W-O,mp-18902,"[160721, 67236, 15395, 157427]",Li2WO4,0.015947815,R-3,y,y,773,AP,,{},{},1,,"Li2CO3, WO3",,10.1016/0022-4596(73)90191-6,1973,,FALSE
Li-W-O,mp-18933,"[10479, 1045]",Li2WO4,0.005136936,I4_1/amd,y,y,,,,{},{},,,,,10.1016/0022-4596(79)90094-X,1979,high pressure phase of mp-18902,FALSE
Li-W-O,mp-19260,"[1044, 14196]",Li2WO4,0,C2/c,y,y,,,,{},{},,,,,10.1016/0022-4596(80)90554-X,1980,high pressure phase of mp-18902,FALSE
Li-W-O,mp-555377,[108819],Li4WO5,0,P-1,y,y,,,,{},{},,,,,10.1016/j.jeurceramsoc.2015.09.033,2016,"high temperature phase of cubic Li4WO5, which can be synthesized via solid state synthesis",FALSE
Li-Y-O,mp-7020,[45511],LiYO2,0,P2_1/c,y,y,1173,AP,,"{""step1"": {""grind method"": [""agate mortar""], ""wet/dry"": [], ""liquid"": []}}",{},1,,"Li2CO3, Y2O3",,10.1021/cm010728u,2002,excess Li2CO3,FALSE
Li-Yb-O,mp-8390,[33955],LiYbO2,0.160577886,I4_1/amd,y,y,1173,AP,,"{""step1"": {""grind method"": [""agate mortar""], ""wet/dry"": [], ""liquid"": []}}",{},1,,"Li2CO3, Yb2O3",,10.1021/cm010728u,2002,excess Li2CO3,FALSE
Li-Zn-O,mp-3297,"[68494, 23634]",Li10Zn4O9,0,P4_2/nmc,y,y,973,,,{},{},1,,"Li2O, ZnO",,10.1524/zkri.1999.214.9.550,1999,inhomogeneous,TRUE
Li-Zn-O,mp-14495,[62137],Li6ZnO4,0,P4_2/nmc,y,y,973,,Ar,{},{},1,y,"Li2O, ZnO",,10.1002/zaac.19875510816,1987,,TRUE
Li-Zr-O,mp-4156,"[291154, 94897, 191166, 94895, 94896, 94894, 94893]",Li2ZrO3,0,C2/c,y,y,1123,AP,,"{""step1"": {""grind method"": [""agate mortar""], ""wet/dry"": [], ""liquid"": []}}",{},1,,"Li2CO3, ZrO2",,10.1021/cm047897+,2005,,FALSE
Li-Zr-O,mp-5418,"[73835, 73836, 41321]",Li6Zr2O7,0,C2/c,y,y,873,AP,,"{""step1"": {""grind method"": [""agate mortar""], ""wet/dry"": [], ""liquid"": []}}",{},1,,"Li2CO3, ZrO2",,10.1021/cm047897+,2005,,FALSE
Lu-Ag-O,mp-1018025,[246823],LuAgO2,0,R-3m,n,n,,,,{},{},,,"NaLuO2, AgNO3",ion exchange,10.1016/j.jssc.2009.05.035,2009,,FALSE
Lu-Al-O,mp-14132,"[182354, 23846]",Lu3Al5O12,0,Ia-3d,y,y,1773,AP,,"{""step1"": {""grind method"": [""mortar""], ""wet/dry"": [], ""liquid"": []}}",{},1,,"Al2O3, Lu2O3",,10.1021/acs.inorgchem.9b03107,2020,typo in chemical reagents section,FALSE
Lu-As-O,mp-7644,[2506],LuAsO4,0,I4_1/amd,n,n,,,,{},{},,,"Lu2O3, Pb2As2O7",flux,10.1002/jrs.2497,2009,,FALSE
Lu-Co-O,mp-550950,[172052],LuCoO3,0.026453747,Pnma,y,y,1173,2,,{},"{""step1"": {""cool rate"": [], ""cool time"": [], ""cool medium"": [], ""cool type"": [""quench""], ""end temperature"": [""RT""], ""remark"": []}}",1,,"KClO4, Lu2O3, Co(OH)2",,10.1039/B515607F,2006,,FALSE
Lu-Cr-O,mp-755471,"[251093, 251094]",LuCrO3,0,Pnma,y,y,1673,AP,,{},{},1,,"Cr2O3, Lu2O3",,10.1103/PhysRevB.89.144401,2013,,FALSE
Lu-Cr-O,mp-19360,"[95967, 90464, 26988]",LuCrO4,0,I4_1/amd,y,y,853,,O2,{},{},3,,"Lu(NO3)3·6H2O, Cr(NO3)3·9H2O",,10.1016/S0925-8388(00)01079-3,2000,,FALSE
Lu-Cu-O,mp-15335,[100089],Lu2Cu2O5,0.046277247,Pna2_1,y,y,1273,AP,,{},{},1,,"Lu2O3, CuO",,10.1134/S106378341403010X,2014,,FALSE
Lu-Fe-O,mp-559750,[23853],Lu3Fe5O12,0.060290208,Ia-3d,y,y,1573,AP,,"{""step1"": {""grind method"": [""agate mortar""], ""wet/dry"": [], ""liquid"": []}}",{},2,,"Lu2O3, Fe2O3",,10.1016/j.physleta.2014.03.018,2014,,FALSE
Lu-Fe-O,mp-1194793,"[195816, 423569]",LuFe2O4,0.049362216,C2/m,y,y,1473,,"air,CO2",{},{},1,,"Lu2O3, Fe2O3",,10.1103/PhysRevB.90.094119,2014,,FALSE
Lu-Fe-O,mp-19366,"[195815, 68481, 423570]",LuFe2O4,0.102975106,R-3m,y,y,,,,{},{},,,,,10.1103/PhysRevLett.108.187601,2011,high temperature phase of mp-1194793,FALSE
Lu-Fe-O,mp-1196239,[423569],LuFe2O4,0.043565583,C2/m,y,?,,,,{},{},,,,,,,same ICSD as mp-1194793,N/A
Lu-Fe-O,mp-1193395,"[185935, 183152]",LuFeO3,0.75489061,P6_3cm,y,n,,,,{},{},,,,from melt,10.1143/JJAP.49.09ME06,2010,other phase of mp-22588,FALSE
Lu-Fe-O,mp-22588,"[189736, 27285, 237341]",LuFeO3,0.036039123,Pnma,y,y,1473,AP,,{},{},2,,"Lu2O3, Fe2O3",,10.1021/ic401482h,2013,,FALSE
Lu-Ga-O,mp-14134,[23850],Lu3Ga5O12,0,Ia-3d,y,y,1523,AP,,"{""step1"": {""grind method"": [""ball milling""], ""wet/dry"": [], ""liquid"": [""acetone""]}}",{},1,,"Lu2O3, Ga2O3",,10.1016/j.jeurceramsoc.2006.02.039,2007,inhomogeneous,FALSE
Lu-Ge-O,mp-8346,[39929],Lu2Ge2O7,0,P4_12_12,y,y,1373,AP,,{},"{""step1"": {""cool rate"": [], ""cool time"": [], ""cool medium"": [], ""cool type"": [""slow cooling""], ""end temperature"": [""RT""], ""remark"": []}}",1,,"Lu2O3, GeO2",,10.1016/j.saa.2019.117755,2020,,FALSE
Lu-Ge-O,mp-28216,[39790],Lu6Ge4O17,0,P2/c,?,?,,,,{},{},,,,,"Russian Journal of Inorganic Chemistry 39, 172 (1994)",1994,translation issue: russian,FALSE