system,mp_id,icsd_ids,composition,e_above_hull,Spacegroup Number,solid_state_synthesized_composition,solid_state_synthesized_structure,sss_highest_temperature(K),sss_pressure(GPa),sss_atmosphere,sss_mixing_condition,sss_cooling_condition,sss_heating_step,single_crystal,sss_precursor,other_synthesis_method,reference,reference_year,comment,google_translate
Eu-V-O,mp-19815,"[9499, 89000]",Eu2VO4,0,I4/mmm,y,y,1473,0,vacuum,{},{},2,,"Eu2O3, V2O5",,10.1016/S0025-5408(99)00063-X,1999,,FALSE
Eu-V-O,mp-22796,"[194935, 15608, 191367, 164835, 81702]",EuVO4,0,I4_1/amd,y,y,1073,AP,,{},{},1,,"Eu2O3, V2O5",,10.1016/j.jssc.2015.02.003,2015,,FALSE
Eu-V-O,mp-1095395,[194936],EuVO4,0.025954386,I4_1/a,y,y,,,,{},{},,,,,10.1016/j.jssc.2015.02.003,2015,high pressure phase of mp-22796,FALSE
Eu-W-O,mp-540684,[15877],Eu2W3O12,0.438618198,C2/c,y,y,1193,AP,,{},"{""step1"": {""cool rate"": [], ""cool time"": [], ""cool medium"": [], ""cool type"": [""quench""], ""end temperature"": [""RT""], ""remark"": []}}",2,,"Eu2O3, WO2",,10.1002/zaac.200570039,2005,,FALSE
Eu-Zr-O,mp-685944,[173950],Eu2Zr2O7,0,Fd-3m,y,y,1773,AP,,"{""step1"": {""grind method"": [""agate mortar""], ""wet/dry"": [], ""liquid"": []}}",{},1,,"Eu2O3, ZrO2",,10.1080/08957959.2017.1300886,2017,,FALSE
Eu-Zr-O,mp-1106293,"[174198, 192313, 182342, 160941]",EuZrO3,0,Pnma,y,y,1823,,Ar/H2,{},{},2,,"EuO, ZrO2",,10.1016/j.jssc.2009.10.014,2010,,FALSE
Fe-Ag-O,mp-19225,[31919],FeAgO2,0,R-3m,y,y,973,0.00015,O2,{},{},1,,"Ag2O, Fe2O3",,10.1088/0953-8984/22/1/016007,2009,inhomogeneous; 3R phase,FALSE
Fe-Ag-O,mp-18966,[2786],FeAgO2,0.008784363,P6_3/mmc,y,?,,,,{},{},,,,,10.1088/0953-8984/22/1/016007,2009,other phase of mp-19225; 2H phase; minority phase,FALSE
Fe-As-O,mp-1181316,[30646],Fe3As2O16,0.466306166,C2/m,?,?,,,,{},{},,,,,,,ICSD 30646 contain hydrogen,N/A
Fe-As-O,mp-1190714,[429576],Fe3As2O16,0.58367825,P-1,?,?,,,,{},{},,,,,,,ICSD 429576 contain hydrogen,N/A
Fe-As-O,mp-29472,[100442],Fe4As2O11,0.135953598,P-1,n,n,,,,{},{},,,"Fe(NO3)3·H2O, As2O5·xH2O, HNO3",precursor method,10.1039/B005350N,2000,,FALSE
Fe-As-O,mp-1193500,[31138],Fe4As3O23,0.618712921,P-43m,?,?,,,,{},{},,,,,,,ICSD 31138 contain hydrogen,N/A
Fe-As-O,mp-28519,[40524],Fe4As5O13,0.089579746,P-1,n,n,,,,{},{},,,,natural mineral,pubs.geoscienceworld.org/canmin/article/23/4/675/11847/schneiderhoehnite-fe-super-2-fe-3-super-3-as-5,1985,,FALSE
Fe-As-O,mp-510450,[59865],Fe7As6O24,0,P-1,n,n,,,,{},{},,,"As2O5, Fe2O3, Fe, NH4Cl",chemical transport reaciton,10.1107/S1600536804026182,2004,,FALSE
Fe-As-O,mp-19398,"[170673, 170945]",FeAsO4,0,Imma,n,n,,,,{},{},,,(NH4)[Fe(AsO4)F,decomposition,10.1039/B210998K,2003,,FALSE
Fe-As-O,mp-21016,"[73978, 62717]",FeAsO4,0.003468617,P2_1/c,n,n,,,,{},{},,,,,10.1039/B210998K,2003,other phase of mp-19398,FALSE
Fe-Bi-O,mp-504615,"[238979, 186441, 186442, 262861, 20067, 26808, 186440]",Fe4Bi2O9,0.011661154,Pbam,y,y,1173,AP,,{},{},2,,"Bi2O3, Fe2O3",,10.1063/1.2905815,2008,inhomogeneous,FALSE
Fe-Bi-O,mp-1196085,"[186444, 186443]",Fe4Bi2O9,0.017097381,Pnma,y,y,,,,{},{},,,,,10.1088/0953-8984/24/14/145401,2012,high pressure phase of mp-504615,FALSE
Fe-Bi-O,mp-23501,"[196302, 238724, 193688, 428380, 239770, 291449, 291450, 196245, 193415, 194663, 194665, 417310, 181983, 237080, 189715, 180502, 417308, 180497, 180504, 168740, 180496, 260118, 180503, 190940, 189682, 180505, 185164, 163687, 97591, 181982, 163688, 109370, 189037, 188396, 180501, 417311, 245827, 187330, 181403, 417303, 186964, 169801, 160918, 180128, 192992, 246424, 157424, 417312, 247765, 75324, 191940, 186955, 186583, 180495, 237367, 184771, 181984, 15299, 417309, 168292, 417307, 237368, 417305, 180498, 180499, 417306, 191991, 168319, 186677, 192511, 180506, 158760, 260119, 180500, 51664, 192509, 417304]",FeBiO3,0.001632503,R3c,y,y,1023,AP,,{},{},1,,"Bi2O3, Fe2O3",,10.1111/j.1151-2916.1967.tb15153.x,1967,excess Bi2O3 (for higher purity),FALSE
Fe-Bi-O,mp-551451,[162264],FeBiO3,0.437927117,P1,y,n,,,,{},{},,,,,10.1016/j.physleta.2007.10.039,2008,modelling of thin film FeBiO3,FALSE
Fe-Bi-O,mp-548231,[154394],FeBiO3,0.545818083,R3,y,y,,,,{},{},,,,,10.1063/1.2147719,2005,distorted phase of mp-23501,FALSE
Fe-Bi-O,mp-547069,"[28622, 20288, 20372]",FeBiO3,0.255312755,Pm-3m,y,?,,,,{},{},,,,,,,might be old refinement of mp-23501,N/A
Fe-Bi-O,mp-22949,"[196250, 196249, 196251, 196252, 20618, 28027, 22342, 237026]",FeBiO3,0.033579411,R3m,y,?,,,,{},{},,,,,10.1016/S0022-3697(71)80189-0,1971,old refinement of mp-23501,FALSE
Fe-Bi-O,mp-1069079,"[188466, 188467]",FeBiO3,0.026811494,P4mm,y,?,,,,{},{},,,,,10.1016/j.physleta.2012.07.011,2012,modelling of high pressure FeBiO3,FALSE
Fe-Bi-O,mp-645159,"[168321, 162895]",FeBiO3,0.011605766,Pnma,y,y,,,,{},{},,,,,10.1103/PhysRevLett.102.027602,2008,high temperature phase of mp-23501,FALSE
Fe-Co-O,mp-753222,"[184063, 166200]",Fe2CoO4,0.010229785,Fd-3m,y,y,1323,AP,,{},"{""step1"": {""cool rate"": [], ""cool time"": [], ""cool medium"": [], ""cool type"": [""slow cooling""], ""end temperature"": [""RT""], ""remark"": []}}",2,,,,10.1016/j.jallcom.2009.08.078,2009,,FALSE
Fe-Cu-O,mp-510281,"[246912, 98488, 31918, 246913, 27960, 92184, 24160, 246911, 191496]",FeCuO2,0,R-3m,y,y,1323,,vacuum;Ar,{},{},1,,"Cu2O, Fe2O3",,10.1016/S0167-2738(00)00274-5,2000,3R phase,FALSE
Fe-Cu-O,mp-505110,[66546],FeCuO2,0.344871869,P6_3/mmc,y,?,,,,{},{},,,,,10.1107/S0108270191006790,1991,other phase of mp-510281; byproduct; 2H phase,FALSE
Fe-Ge-O,mp-650055,[35349],Fe15Ge8O36,0.03708666,P-1,?,?,,,,{},{},,,,,10.1107/S0108270183003947,1983,insufficient information: no synthesis information,FALSE
Fe-Ge-O,mp-22421,[93973],Fe2GeO4,0,Fd-3m,y,y,1223,0,vacuum,{},{},2,,"GeO2, Fe2O3, Fe",,10.1016/0022-4596(80)90022-5,1980,,FALSE
Fe-Ge-O,mp-651997,[9766],Fe3Ge2O8,0.414652649,P2_1/c,?,?,,,,{},{},,,,,10.1107/S0108270183003935,1983,old refinement of Fe3.2Ge1.8O8;  insufficient information: no synthesis information,FALSE
Fe-Ge-O,mp-22334,"[89788, 190071, 190066, 89791, 190067, 89787, 190068, 190069, 190070, 89790, 89789]",FeGeO3,0.459273543,C2/c,y,y,1273,0,vacuum,"{""step1"": {""grind method"": [""mixed""], ""wet/dry"": [], ""liquid"": [""ethanol""]}}",{},1,,"Fe2O3, Fe, GeO2",,10.2138/am.2012.3995,2012,inhomogeneous,FALSE
Fe-Mo-O,mp-704851,[16402],Fe2Mo3O12,0.001738907,P2_1,y,?,,,,{},{},,,,,10.1021/ic50213a065,1980,other refinement of mp-21925,FALSE
Fe-Mo-O,mp-21925,[80449],Fe2Mo3O12,0.2279762,Pbcn,y,y,,,,{},{},,,,,10.1016/0025-5408(95)00157-3,1995,high temperature phase of mp-705435,FALSE
Fe-Mo-O,mp-705435,"[166632, 100606, 109046]",Fe2Mo3O12,0,P2_1/c,y,y,1173,AP,,"{""step1"": {""grind method"": [""mortar""], ""wet/dry"": [], ""liquid"": []}}","{""step1"": {""cool rate"": [], ""cool time"": [], ""cool medium"": [], ""cool type"": [""slow cooling""], ""end temperature"": [""RT""], ""remark"": []}}",1,,"Fe2O3, MoO3",,10.1557/jmr.2014.63,2014,,FALSE
Fe-Mo-O,mp-504974,"[61069, 27216]",Fe2Mo3O8,0.172776352,P6_3mc,y,y,1273,0,vacuum,{},{},1,,"Fe2O3, Mo, MoO3",,10.1021/ja01577a021,1957,,FALSE
Fe-Mo-O,mp-30154,[93229],Fe2Mo4O7,0.758080819,Imma,y,y,1473,0,vacuum,{},"{""step1"": {""cool rate"": [], ""cool time"": [], ""cool medium"": [], ""cool type"": [""quench""], ""end temperature"": [""RT""], ""remark"": []}}",1,,"Fe, Mo, MoO3",,10.1016/S0925-8388(00)01331-1,2001,inhomogeneous,FALSE
Fe-Mo-O,mp-505526,[43013],FeMoO4,0.398000207,C2/m,y,y,,,,{},{},,,,,10.1021/ic50064a010,1968,beta phase; high temperature phase of mp-556667,FALSE
Fe-Mo-O,mp-556667,[43012],FeMoO4,0.00727557,C2/m,y,y,1273,0,vacuum,{},"{""step1"": {""cool rate"": [{""value"": ""100"", ""unit"": ""C/min""}], ""cool time"": [], ""cool medium"": [], ""cool type"": [], ""end temperature"": [""RT""], ""remark"": [""<""]}}",1,,"Fe2O3, MoO3, Mo; Fe2O3, MoO3, Fe",,10.1021/ic50064a010,1968,alpha phase,FALSE
Fe-Ni-O,mp-22684,"[52387, 158834, 192290, 246894]",Fe2NiO4,0.082348431,Fd-3m,y,y,1370,AP,,"{""step1"": {""grind method"": [""agate mortar""], ""wet/dry"": [], ""liquid"": [""ethanol""]}}","{""step1"": {""cool rate"": [], ""cool time"": [], ""cool medium"": [], ""cool type"": [""quench""], ""end temperature"": [""RT""], ""remark"": []}}",3,,"Fe2O3, NiO, Fe, Ni",,10.1134/S0020168507020148,2006,,FALSE
Fe-Ni-O,mp-35596,[182237],Fe2NiO4,0,Imma,y,?,,,,{},{},,,,,10.1016/j.jmmm.2011.06.071,2011,modelling of mp-22684,FALSE
Fe-Ni-O,mp-640147,[109150],FeNi2O4,0.01024966,Fd-3m,?,?,,,,{},{},,,,,10.1063/1.1728663,1962,"extrapolated, nearest composition synthesized was Ni1.8Fe1.2O4",FALSE
Fe-Pb-O,mp-555778,[36259],Fe12PbO19,0.088310368,P6_3/mmc,y,y,1058,AP,,"{""step1"": {""grind method"": [""eletrical pestle and mortar""], ""wet/dry"": [], ""liquid"": []}}","{""step1"": {""cool rate"": [], ""cool time"": [], ""cool medium"": [""air""], ""cool type"": [""quench""], ""end temperature"": [""RT""], ""remark"": []}}",1,,"Fe2O3, PbO",,10.1111/j.1151-2916.1962.tb11146.x,1962,inhomogeneous,FALSE
Fe-Sb-O,mp-559626,[155152],FeSb2O4,0.278687946,P2_1/c,y,y,,,,{},{},,,,,10.1088/0953-8984/18/25/S09,2006,high pressure phase of mp-22265,FALSE
Fe-Sb-O,mp-22265,"[4459, 61472, 61470, 61471, 61466, 61467, 182798, 155151, 30350, 61469, 61468, 61473, 158916]",FeSb2O4,0,P4_2/mbc,y,y,973,0,vacuum,{},{},1,,"Fe2O3, Sb2O3",,10.1039/C1JM12645H,2011,,FALSE
Fe-Sb-O,mp-601882,[155153],FeSb2O4,0.095556675,P4_2/m,y,y,,,,{},{},,,,,10.1088/0953-8984/18/25/S09,2006,high pressure phase of mp-22265,FALSE
Fe-Sb-O,mp-505009,[40344],FeSb2O6,0,P4_2/mnm,y,y,1523,AP,,{},"{""step1"": {""cool rate"": [{""value"": ""240"", ""unit"": ""C/h""}], ""cool time"": [], ""cool medium"": [], ""cool type"": [], ""end temperature"": [""RT""], ""remark"": []}}",2,,"Sb2O3, Fe2O3",,10.1007/s10948-016-3913-4,2017,,FALSE
Fe-Se-O,mp-1201086,[2477],FeSe2O6,0.273179658,P2_1/c,?,?,,,,{},{},,,,,,,ICSD 2477 contain hydrogen,N/A
Fe-Se-O,mp-29100,[83344],Fe2Se2O7,0.504781277,Pccn,n,n,,,,{},{},,,"FeCl3·H2O, H2SeO3, NaOH",hydrothermal,10.1016/j.jallcom.2019.153549,2020,,FALSE
Fe-Se-O,mp-505098,[66719],Fe2Se3O12,0.232369152,P2_1/c,n,n,,,,{},{},,,"FeC2O4·2H2O , H2SeO4, H2O",hydrothermal,10.1007/BF00811460,1991,,FALSE
Fe-Se-O,mp-555589,[82025],Fe2Se6O15,0,P2_1/c,y,y,673,0,vacuum,{},"{""step1"": {""cool rate"": [], ""cool time"": [], ""cool medium"": [], ""cool type"": [""slow cooling""], ""end temperature"": [""RT""], ""remark"": []}}",1,,"Fe2O3, SeO2",,10.1006/jssc.1996.0092,1996,,FALSE
Fe-Se-O,mp-1201589,[413607],Fe3Se3O10,0.453255234,P-1,?,?,,,,{},{},,,,,,,ICSD 413607 contain hydrogen,N/A
Fe-Se-O,mp-1196307,[62057],FeSe3O8,0.212528403,P2_1/c,?,?,,,,{},{},,,,,,,ICSD 62057 contain hydrogen,N/A
Fe-Se-O,mp-1181664,[62056],FeSe3O9,0.161457184,P2_1/c,?,?,,,,{},{},,,,,,,ICSD 62056 contain hydrogen,N/A
Fe-Sn-O,mp-1202032,"[27661, 130019]",FeSnO6,0.769003603,Pn-3,?,?,,,,{},{},,,,,,,"ICSD 27661, 130019 contain hydrogen",N/A
Fe-Sn-O,mp-1197322,[25821],FeSnO6,0.971868935,Fm-3m,?,?,,,,{},{},,,,,,,ICSD 25821 contain hydrogen,N/A
Fe-Te-O,mp-540592,[8283],Fe2Te3O9,0.013841975,Pnma,y,y,,0,vacuum,{},{},1,,"Fe2O3, TeO2",,10.1007/s10973-007-8460-6,2008,,FALSE
Fe-Te-O,mp-605856,[417291],Fe2Te3O9,0.004282647,Pnma,y,n,,,,{},{},,,,hydrothermal,10.1016/j.jssc.2007.01.022,2007,other phase of mp-540592,FALSE
Fe-Te-O,mp-30995,[25021],Fe2Te4O11,0.003846995,P2_1/c,y,y,850,0,vacuum,{},{},1,,"Fe2O3, TeO2",,10.1002/crat.2170270617,1972,,FALSE
Fe-Te-O,mp-560112,[8282],Fe2TeO5,0.025515755,P2_1/c,?,?,,,,{},{},,,,,"Revue de Chimie Minerale 13, 359 (1976)",1976,insufficient information: no synthesis information,TRUE
Fe-Te-O,mp-21437,"[24795, 93213]",Fe2TeO6,0,P4_2/mnm,y,y,975,AP,,{},{},1,,"TeO2, Fe2O3",,10.1016/S0925-8388(00)01508-5,2001,,FALSE
Fe-Te-O,mp-561343,[417292],Fe3Te4O12,0,P2_1/c,n,n,,,,{},{},,,"Fe3O4, TeO2, HCl",hydrothermal,10.1016/j.jssc.2007.01.022,2007,,FALSE
Fe-Te-O,mp-1197157,"[4439, 100139]",FeTe2O6,0.313888627,I4_1/acd,?,?,,,,{},{},,,,,,,"ICSD 4439, 100139 contain hydrogen",N/A
Fe-Te-O,mp-561036,[417293],FeTe6O13,0.073943327,R-3,n,n,,,,{},{},,,"Fe3O4, TeO2, HCl",hydrothermal,10.1016/j.jssc.2007.01.022,2007,,FALSE
Fe-Te-O,mp-1197402,[6310],FeTeO5,0.619240758,P2_1/c,?,?,,,,{},{},,,,,,,ICSD 6310 contain hydrogen,N/A
Fe-W-O,mp-22124,"[1146, 6143, 1147]",Fe2WO6,0.505621326,Pbcn,y,y,1173,AP,,{},{},1,,"WO3, Fe2O3",,10.1007/BF01151850,1992,gamma phase,FALSE
Fe-W-O,mp-19421,"[26811, 15192, 26843, 15193, 64733]",FeWO4,0,P2/c,y,y,1173,0,vacuum,{},{},1,,"Fe2O3, WO3",,10.1016/0025-5408(82)90021-6,1982,,FALSE
Ga-Ag-O,mp-11020,[95665],GaAgO2,0,P6_3/mmc,y,y,,,,{},{},,,,,10.1016/S1293-2558(02)01363-8,2002,"modelling of alpha GaAgO2, which can be synthesized via high pressure solid state synthesis: 10.1016/j.jallcom.2015.04.051",FALSE
Ga-Ag-O,mp-1105293,[193540],GaAgO2,0.067857991,Pna2_1,y,n,,,,{},{},,,,ion exchange,10.1016/j.jssc.2014.11.012,2015,beta phase,FALSE
Ga-As-O,mp-1102977,[423937],GaAsO4,0.004664476,C222_1,y,n,,,,{},{},,,"GaAs, Cl, Os",solid gas reaction,10.1016/j.matlet.2012.04.015,20120,other phase of mp-3996,FALSE
Ga-As-O,mp-3996,"[86220, 86219, 50674, 50683, 50676, 86217, 50682, 50678, 201776, 50677, 50679, 50680, 33256, 50675, 41949, 86221, 168185, 50673, 86218, 33257, 86222, 86223, 50681]",GaAsO4,0,P3_121,y,y,1073,0.1,O2;N2/O2,{},{},1,,"Ga2O3, As2O3",,10.1016/0167-577X(90)90011-A,1990,,FALSE
Ga-Au-O,mp-11021,[95666],GaAuO2,0.007137727,P6_3/mmc,?,?,,,,{},{},,,,,10.1016/S1293-2558(02)01363-8,2002,modelling of delafossite GaAuO2,FALSE
Ga-Bi-O,mp-1195913,"[248250, 248249]",Ga4Bi2O9,0.005879932,Pnma,y,y,,,,{},{},,,,,10.1107/S0108768110010104,2010,high pressure phase of mp-23519,FALSE
Ga-Bi-O,mp-23519,"[37088, 250413, 248248, 248247, 20068, 248245, 248246, 248244]",Ga4Bi2O9,0,Pbam,y,y,1073,AP,,"{""step1"": {""grind method"": [""agate mortar""], ""wet/dry"": [], ""liquid"": []}}",{},2,,"Bi2O3, Ga2O3",,10.1016/j.jcat.2016.11.007,2017,,FALSE
Ga-Bi-O,mp-28632,[68648],GaBi12O20,0.030575684,I23,?,?,,,,{},{},,,,,"Izvestiya Akademii Nauk SSSR, Neorganicheskie Materialy 25, 1715 (1989)",1989,translation issue: russian,FALSE
Ga-Bi-O,mp-558285,[171709],GaBiO3,0.002003926,Pcca,y,y,1473,6,,{},"{""step1"": {""cool rate"": [], ""cool time"": [], ""cool medium"": [], ""cool type"": [""quench""], ""end temperature"": [""RT""], ""remark"": []}}",1,,"Bi2Ga4O9, Bi25GaO39",,10.1021/cm052020b,2006,,FALSE
Ga-Bi-O,mp-22979,"[158757, 157550]",GaBiO3,0.227705641,Pm-3m,y,?,,,,{},{},,,,,10.1103/PhysRevB.75.245209,2007,modelling of cubic BiGaO3,FALSE
Ga-Cu-O,mp-4280,"[188625, 60846, 25594]",GaCuO2,7.66E-05,R-3m,y,y,1373,AP,,{},{},2,,"Cu2O, Ga2O3",,10.1016/j.materresbull.2012.11.103,2013,alpha phase,FALSE
Ga-Cu-O,mp-11019,[95664],GaCuO2,0,P6_3/mmc,y,?,,,,{},{},,,,,10.1016/S1293-2558(02)01363-8,2002,modelling of mp-4280,FALSE
Ga-Cu-O,mp-1105229,[291233],GaCuO2,0.152009084,Pna2_1,y,n,,,,{},{},,,,ion exchange,10.1021/ja501614n,2014,beta phase; other phase of mp-4280,FALSE
Ga-Fe-O,mp-649086,[35079],GaFeO3,0.523634036,Pna2_1,y,y,1673,AP,,{},{},4,,"Ga2O3, Fe2O3",,10.1016/j.jallcom.2009.11.099,2010,,FALSE
Ga-Ge-O,mp-29455,[202044],Ga4GeO8,0,C2/m,y,y,1326,AP,,"{""step1"": {""grind method"": [""mixed""], ""wet/dry"": [], ""liquid"": [""ethanol""]}}",{},1,,"Ga2O3, GeO2",,10.1039/A907541K,2000,alpha phase; inhomogeneous,FALSE
Ga-Pb-O,mp-20496,"[33533, 80129]",Ga2PbO4,0,Ama2,y,y,1073,AP,,{},{},1,,"PbO, Ga2O3",,10.1016/0025-5408(78)90155-1,1978,,FALSE
Ga-Pb-O,mp-14216,[32567],Ga8Pb9O21,0.001798968,Pa-3,n,n,,,,{},{},,,"PbO, Ga2O2",from melt,10.1002/zaac.19824840112,1982,,TRUE
Ga-Se-O,mp-1196063,[422886],Ga2Se2O7,0,Pccn,y,y,933,0,vacuum,{},"{""step1"": {""cool rate"": [{""value"": ""4"", ""unit"": ""C/h""}], ""cool time"": [], ""cool medium"": [], ""cool type"": [], ""end temperature"": [""RT""], ""remark"": []}}",1,y,"Ga2O3, SeO2",,10.1016/j.jssc.2012.02.014,2012,inhomogeneous,FALSE
Ga-Te-O,mp-30187,[94349],Ga2Te4O11,0.007852806,P1,y,y,923,,,{},"{""step1"": {""cool rate"": [{""value"": ""2"", ""unit"": ""C/h""}], ""cool time"": [], ""cool medium"": [], ""cool type"": [], ""end temperature"": [{""value"": ""560"", ""unit"": ""C""}], ""remark"": []}}",2,y,"TeO2, Ga2O3",,10.1016/S1293-2558(01)01153-0,2001,mixture of glass and product,FALSE
Ga-Te-O,mp-28931,[78346],Ga2TeO6,0,P4_2/mnm,y,y,1023,AP,,{},"{""step1"": {""cool rate"": [], ""cool time"": [], ""cool medium"": [], ""cool type"": [""furnace cool""], ""end temperature"": [""RT""], ""remark"": []}}",1,,"Ga2O3, TeO2",,10.1143/JPSJ.63.1666,1994,ICSD 78346 doi not working; inhomogeneous,FALSE
Ga-W-O,mp-1197613,[153419],GaW12O40,0.18313676,I-43m,?,?,,,,{},{},,,,,,,ICSD 153419 contain hydrogen,N/A
Gd-Al-O,mp-14133,"[23849, 192184]",Gd3Al5O12,0,Ia-3d,y,y,1548,AP,,{},{},1,,"Al2O3, Ga2O3",,10.1088/0953-8984/26/11/116001,2014,,FALSE
Gd-Al-O,mp-5223,"[150353, 150348, 150354, 249020, 150352, 150350, 150355, 150351, 150349, 59848]",GdAlO3,0.012026519,Pnma,y,y,1673,AP,,"{""step1"": {""grind method"": [""agate mortar""], ""wet/dry"": [], ""liquid"": []}}",{},2,,"Al2O3, Ga2O3",,10.1016/j.jallcom.2016.07.327,2016,,FALSE
Gd-Au-O,mp-10559,[411500],Gd3AuO6,0,P-1,y,y,873,0.43,,{},{},1,,"Au2O3·xH2O, Gd2O3, KOH, KClO4",,10.1002/1521-3749(200103)627:3<439::AID-ZAAC439>3.0.CO;2-R,2001,,TRUE
Gd-Au-O,mp-623092,[83391],Gd4Au2O9,0,Pbcn,y,y,1653,4,,{},"{""step1"": {""cool rate"": [], ""cool time"": [], ""cool medium"": [], ""cool type"": [""quench""], ""end temperature"": [""RT""], ""remark"": []}}",3,,"Gd2O3, Au, KO2",,10.1515/znb-1996-0609,1995,,TRUE
Gd-Bi-O,mp-1070662,[261435],Gd2BiO2,0,I4/mmm,y,y,1273,0,vacuum,{},{},3,,"Bi, Gd, Gd2O3",,10.1021/ja111015p,2011,,FALSE
Gd-Bi-O,mp-1103896,[429459],Gd3BiO3,0,C2/m,?,?,1123,0,vacuum,{},{},,,"GdBi, Gd2O3",,10.1016/j.jssc.2015.10.004,2016,minority phase,FALSE
Gd-Co-O,mp-20951,[45153],GdCoO3,0.173603825,Pm-3m,y,y,1623,AP,,{},"{""step1"": {""cool rate"": [], ""cool time"": [], ""cool medium"": [], ""cool type"": [""quench""], ""end temperature"": [""RT""], ""remark"": []}}",2,,"Gd2O3, Co2O3",,"Atti della Accademia Nazionale dei Lincei, Classe di Scienze Fisiche, Matematiche e Naturali, Rendiconti 17, 254 (1954)",1954,,TRUE
Gd-Cr-O,mp-18331,"[251088, 251087, 9985]",GdCrO3,0,Pnma,y,y,1673,AP,,{},{},1,,"Gd2O3, Cr2O3",,10.1006/jssc.2000.9152,2001,,FALSE
Gd-Cr-O,mp-22244,"[51903, 26982]",GdCrO4,0,I4_1/amd,y,y,773,,O2,{},{},3,,"Gd(NO3)3·6H2O, Cr(NO3)3·9H2O",,10.1006/jssc.2001.9476,2002,,FALSE
Gd-Cu-O,mp-4860,"[65015, 41844, 71184, 82066]",Gd2CuO4,0,I4/mmm,y,y,1223,AP,,{},{},1,,"Gd2O3, CuO",,10.1016/0025-5408(89)90074-3,1989,,FALSE
Gd-Fe-O,mp-557370,"[27127, 15456]",Gd3Fe5O12,1.54177713,Ia-3d,y,y,1690,AP,,{},{},1,,,,10.1149/1.1574810,2003,,FALSE
Gd-Fe-O,mp-1189831,[421430],Gd3FeO6,0.005870343,Cmc2_1,n,n,,,,{},{},,,"Gd2O3, KOH, Fe2O3",flux,10.1016/j.solidstatesciences.2010.03.010,2010,,FALSE
Gd-Fe-O,mp-600576,"[27278, 150356, 150359, 150363, 150360, 16644, 150357, 23823, 189729, 172009, 150358, 150364, 150361, 247096, 61346, 150362]",GdFeO3,1.65815972,Pnma,y,y,1523,AP,,{},{},3,,"Gd2O3, Fe2O3",,10.1016/j.jssc.2005.12.023,2006,,FALSE
Gd-Ga-O,mp-2921,"[184931, 84874, 192181, 9237, 37145]",Gd3Ga5O12,0,Ia-3d,y,y,1548,AP,,{},"{""step1"": {""cool rate"": [{""value"": ""180"", ""unit"": ""C/h""}], ""cool time"": [], ""cool medium"": [], ""cool type"": [], ""end temperature"": [""RT""], ""remark"": []}}",1,,"Gd2O3, Ga2O3",,10.1088/0953-8984/26/11/116001,2014,off-stoichiometric,FALSE
Gd-Ga-O,mp-3594,"[99493, 420733, 280077]",Gd3GaO6,0,Cmc2_1,y,y,1673,AP,,{},"{""step1"": {""cool rate"": [], ""cool time"": [], ""cool medium"": [""air""], ""cool type"": [""quench""], ""end temperature"": [""RT""], ""remark"": []}}",3,,"Gd2O3, Ga2O3",,10.1016/j.jssc.2003.12.024,2004,,FALSE
Gd-Ga-O,mp-18656,[492],GdGaO3,0.051846664,Pnma,n,n,,,,{},{},,,"Ga2O3, Gd2O3, NH3, HNO3",coprecipitation,10.1016/j.jssc.2005.05.017,2005,,FALSE
Gd-Ge-O,mp-581229,[16192],Gd2Ge2O7,0,P1,y,y,1473,AP,,"{""step1"": {""grind method"": [""agate mortar""], ""wet/dry"": [], ""liquid"": []}}",{},4,,"Gd2O3, GeO2",,10.1134/S0020168520010033,2020,,FALSE
Gd-Ge-O,mp-561584,[61372],Gd2GeO5,0,P2_1/c,y,y,1773,AP,,"{""step1"": {""grind method"": [""ball milling""], ""wet/dry"": [], ""liquid"": [""acetone""]}}",{},2,,"Gd2O3, GeO2",,10.1016/0022-5088(85)90349-2,1985,,FALSE