system,mp_id,icsd_ids,composition,e_above_hull,Spacegroup Number,solid_state_synthesized_composition,solid_state_synthesized_structure,sss_highest_temperature(K),sss_pressure(GPa),sss_atmosphere,sss_mixing_condition,sss_cooling_condition,sss_heating_step,single_crystal,sss_precursor,other_synthesis_method,reference,reference_year,comment,google_translate
Nd-Cr-O,mp-19062,[28933],NdCrO3,0.145810947,Pm-3m,y,?,,,,{},{},,,,,10.1016/j.jallcom.2006.06.064,2007,old refinement of mp-19269,FALSE
Nd-Cr-O,mp-19126,"[90461, 96405, 93786, 26979]",NdCrO4,0,I4_1/amd,y,y,853,,O2,{},{},3,,"Nd(NO3)3·6H2O, Cr(NO3)3·9H2O",,10.1016/S0925-8388(00)01079-3,2000,,FALSE
Nd-Cr-O,mp-1203182,[74549],NdCrO5,0.068365311,P2_1/c,?,?,,,,{},{},,,,,,,ICSD 74549 contain hydrogen,N/A
Nd-Cu-O,mp-662567,[78879],Nd12Cu6O25,0.064129107,C2/m,y,y,1773,4,,{},"{""step1"": {""cool rate"": [], ""cool time"": [], ""cool medium"": [], ""cool type"": [""quench""], ""end temperature"": [""RT""], ""remark"": []}}",3,,"Nd2O3, CuO, KO2",,10.1002/zaac.19966220807,1996,,TRUE
Nd-Cu-O,mp-21025,[79871],Nd2Cu2O5,0.068867685,Pbam,y,n,,,,{},{},,,"Nd2O3, CuO, HNO3, H2O, NaOH",coprecipitation,10.1021/ic00112a020,1995,other phase of mp-667803,FALSE
Nd-Cu-O,mp-667803,[80030],Nd2Cu2O5,0.077820875,C2/c,y,y,1283,AP,,"{""step1"": {""grind method"": [""agate mortar""], ""wet/dry"": [], ""liquid"": [""acetone""]}}","{""step1"": {""cool rate"": [], ""cool time"": [], ""cool medium"": [], ""cool type"": [""quench""], ""end temperature"": [""RT""], ""remark"": []}}",1,,"Nd2O3, CuO",,10.1039/JM9950500765,1995,,FALSE
Nd-Cu-O,mp-15742,[86754],Nd2CuO4,0.075870463,Cmce,y,y,,,,{},{},,,,,10.1039/A805886E,1998,high pressure phase of mp-4158,FALSE
Nd-Cu-O,mp-4158,"[261376, 203228, 160629, 261375, 69479, 186590, 4203, 75830, 75825, 202885, 203229, 71181, 82067, 75828, 69886, 75826, 75829, 75824, 75827, 69482, 86752]",Nd2CuO4,0.000939283,I4/mmm,y,y,1223,AP,,{},{},1,,"CuO, Nd2O3",,10.1039/A805886E,1998,,FALSE
Nd-Cu-O,mp-21376,[86753],Nd2CuO4,0.101781962,I4/mmm,y,y,,,,{},{},,,,,10.1039/A805886E,1998,high pressure phase of mp-4158,FALSE
Nd-Cu-O,mp-556595,[86841],Nd4Cu2O7,0.043288032,C2/m,n,n,,,,{},{},1,,Nd2CuO4,reduction,10.1006/jssc.1997.7667,1998,,FALSE
Nd-Cu-O,mp-4886,"[83052, 18104]",NdCuO2,0,R-3m,y,y,1173,0,vacuum,{},{},1,,"Cu2O, Nd2O3",,10.1103/PhysRevB.56.3457,1997,,FALSE
Nd-Fe-O,mp-1201849,"[422691, 260556]",Nd3Fe5O12,0,Ia-3d,n,n,,,,{},{},,,"Fe (NO3)3·9H2O, Nd(NO3)3·6H2O, KOH",hydrothermal,10.1016/j.jssc.2011.03.010,2011,,FALSE
Nd-Fe-O,mp-1186277,[421427],Nd3FeO6,0.197537575,Cmc2_1,n,n,,,,{},{},,,"Fe2O3, Nb2O5, KOH, Sr(OH)2",from melt,10.1016/j.solidstatesciences.2010.03.010,2010,,FALSE
Nd-Fe-O,mp-20407,"[153441, 84774, 153442, 189726, 280090, 27275, 156444]",NdFeO3,0.128992087,Pnma,y,y,1573,,O2,"{""step1"": {""grind method"": [""mixed""], ""wet/dry"": [], ""liquid"": [""acetone""]}}",{},2,,"Nd2O3, Fe2O3",,10.1006/jssc.1997.7355,1997,,FALSE
Nd-Ga-O,mp-15239,[84872],Nd3Ga5O12,0,Ia-3d,y,y,1273,AP,,{},{},1,,"Nd2O3, Ga2O3",,10.1016/0022-0248(94)90748-X,1994,,FALSE
Nd-Ga-O,mp-11773,"[420731, 99490]",Nd3GaO6,0,Cmc2_1,y,y,1673,AP,,{},"{""step1"": {""cool rate"": [], ""cool time"": [], ""cool medium"": [""air""], ""cool type"": [""quench""], ""end temperature"": [""RT""], ""remark"": []}}",3,,"Nd2O3, Ga2O3",,10.1016/j.jssc.2003.12.024,2004,,FALSE
Nd-Ga-O,mp-559770,[54684],Nd4Ga2O9,0.001829858,P2_1/c,y,y,1673,AP,,{},"{""step1"": {""cool rate"": [], ""cool time"": [], ""cool medium"": [""air""], ""cool type"": [""quench""], ""end temperature"": [""RT""], ""remark"": []}}",3,,"Nd2O3, Ga2O3",,10.1016/j.jallcom.2004.04.072,2004,,FALSE
Nd-Ga-O,mp-9834,[76050],NdGaO3,1.478921816,Pm-3m,y,?,,,,{},{},,,,,,,might be old refinement of mp-3196,N/A
Nd-Ga-O,mp-3196,"[196514, 90606, 160263, 54708, 83348, 90202, 160257, 90203, 98412, 79633, 246691, 160259, 160262, 160260, 160261, 160258, 160264]",NdGaO3,0.03354062,Pnma,y,y,1673,,,"{""step1"": {""grind method"": [""agate mortar""], ""wet/dry"": [], ""liquid"": [""acetone""]}}",{},2,,"Nd2O3, Ga2O3",,10.1016/0025-5408(74)90134-2,1974,,FALSE
Nd-Ge-O,mp-581345,[37000],Nd2Ge2O7,0,P-1,y,y,1473,AP,,"{""step1"": {""grind method"": [""agate mortar""], ""wet/dry"": [], ""liquid"": []}}",{},3,,"Nd2O3, GeO2",,10.1134/S1063783418030071,2018,excess GeO2,FALSE
Nd-Ge-O,mp-1205383,[63624],Nd2GeO5,0,P2_1/c,y,y,1573,,,"{""step1"": {""grind method"": [""agate mortar""], ""wet/dry"": [], ""liquid"": []}}",{},1,,"Nd2O3, GeO2",,10.1016/j.jssc.2008.06.029,2008,,FALSE
Nd-Hf-O,mp-1190845,[236210],Nd2Hf2O7,0,Fd-3m,y,y,,,,{},{},,,,,10.1016/j.solidstatesciences.2012.08.003,2012,"modelling of cubic Nd2Hf2O7 pyrochlore, which can be synthesized via solid state reaction: 10.1016/j.jssc.2006.03.036",FALSE
Nd-Hg-O,mp-11691,[41121],Nd2HgO4,0,C2/m,y,y,823,,,{},{},1,,"HgO, Nd2O3",,10.1016/0022-4596(91)90293-Q,1991,,FALSE
Nd-Ir-O,mp-1190299,[239644],Nd2Ir2O7,0,Fd-3m,y,y,1473,0,vacuum,{},{},2,,"Nd2O3, IrO2",,10.1103/PhysRevB.90.235110,2014,,FALSE
Nd-Ir-O,mp-9559,"[166194, 86474]",Nd3IrO7,0,Cmcm,y,y,1523,,O2,{},"{""step1"": {""cool rate"": [{""value"": ""30"", ""unit"": ""C/h""}], ""cool time"": [], ""cool medium"": [], ""cool type"": [], ""end temperature"": [""RT""], ""remark"": []}}",1,,"Nd2O3, Ir",,10.1016/j.jallcom.2008.10.044,2009,,FALSE
Nd-Mn-O,mp-19393,"[84352, 97043, 91768, 66704, 84670]",NdMn2O5,0,Pbam,y,y,1323,AP,,{},{},1,,"Nd2O3, Mn2O3",,10.1134/S002016851502017X,2015,,FALSE
Nd-Mn-O,mp-1189476,"[161925, 161926]",NdMnO3,0,P2_1/c,y,?,,,,{},{},,,,,10.1103/PhysRevB.77.214428,2008,off-stoichimetric of mp-20852,FALSE
Nd-Mn-O,mp-20852,"[163728, 15719, 247143, 95490, 163724, 163726]",NdMnO3,0.287179044,Pnma,y,y,1673,AP,,{},{},1,,"Nd2O3, Mn2O3",,10.1134/S002016851502017X,2015,,FALSE
Nd-Mo-O,mp-28631,[68621],NdMo8O14,0.306559318,Aea2,y,y,1673,,Ar,{},{},1,,"Nd2O3, Mo, MoO3",,10.1016/j.jallcom.2009.09.136,2010,,FALSE
Nd-Mo-O,mp-558827,[50936],NdMo6O12,0.286171945,I4/m,n,n,,,,{},{},,,"Nd2O3, MoO3, Rb2MoO4",electrolysis,10.1006/jssc.1997.7662,1998,,FALSE
Nd-Mo-O,mp-1202578,[402793],Nd16Mo21O56,0.162383239,P2_1/c,y,y,1873,,Ar,{},"{""step1"": {""cool rate"": [{""value"": ""100"", ""unit"": ""C/h""}], ""cool time"": [], ""cool medium"": [], ""cool type"": [], ""end temperature"": [{""value"": ""1100"", ""unit"": ""C""}], ""remark"": []}, ""step2"": {""cool rate"": [], ""cool time"": [], ""cool medium"": [], ""cool type"": [""furnace cool""], ""end temperature"": [""RT""], ""remark"": []}}",1,,"Nd2O3, Mo, MoO3",,10.1021/ic981234a,1999,,FALSE
Nd-Mo-O,mp-33803,[291030],Nd2Mo2O7,0,Fd-3m,y,y,1673,,CO/CO2,{},{},1,,"Nd2O3, MoO2",,10.1016/0022-4596(87)90316-1,1987,,FALSE
Nd-Mo-O,mp-16678,[413028],Nd2Mo4O15,0,P-1,y,y,1023,AP,,{},{},1,,"Nd2O3, MoO3",,10.1016/j.jssc.2006.03.023,2006,alpha phase,FALSE
Nd-Mo-O,mp-1196969,[261126],Nd2Mo4O15,0.013176096,P-1,y,n,,,,{},{},,,"K2CO3, Nd2O3, MoO3",flux,10.1107/S1600536810048609,2010,beta phase; other phase of mp-16678,FALSE
Nd-Mo-O,mp-18494,[68227],Nd2MoO6,0,I4_1/acd,y,y,1523,AP,,"{""step1"": {""grind method"": [""agate mortar""], ""wet/dry"": [], ""liquid"": []}}","{""step1"": {""cool rate"": [{""value"": ""300"", ""unit"": ""C/h""}], ""cool time"": [], ""cool medium"": [], ""cool type"": [], ""end temperature"": [""RT""], ""remark"": []}}",2,,"Nd2O3, MoO3",,10.1016/j.jallcom.2019.06.378,2019,,FALSE
Nd-Mo-O,mp-557299,[153052],Nd3MoO7,0.012895488,P2_12_12_1,y,y,1473,0,vacuum,"{""step1"": {""grind method"": [""agate mortar""], ""wet/dry"": [], ""liquid"": []}}",{},1,,"Nd2O3, MoO2, MoO3",,10.1016/j.jssc.2004.10.013,2005,,FALSE
Nd-Mo-O,mp-700146,[91128],Nd5Mo32O54,0.230748786,P2_1/c,y,y,1873,,Ar,{},"{""step1"": {""cool rate"": [{""value"": ""100"", ""unit"": ""C/h""}], ""cool time"": [], ""cool medium"": [], ""cool type"": [], ""end temperature"": [{""value"": ""1100"", ""unit"": ""C""}], ""remark"": []}, ""step2"": {""cool rate"": [], ""cool time"": [], ""cool medium"": [], ""cool type"": [""furnace cool""], ""end temperature"": [""RT""], ""remark"": []}}",1,,"Nd2O3, Mo, MoO3",,10.1006/jssc.2000.8697,2000,,FALSE
Nd-Mo-O,mp-558671,[10197],Nd5Mo3O16,0.024926436,Pn-3n,y,y,1323,0,vacuum,{},{},2,,"Nd2O3, MoO2, MoO3",,10.1021/cm00002a017,1989,,FALSE
Nd-Mo-O,mp-558785,[172811],Nd6Mo10O39,0.005626123,C2/c,n,n,,,,{},{},1,,Nd2Mo4O15,decomposition,10.1016/j.jssc.2006.03.023,2006,,FALSE
Nd-Mo-O,mp-16672,[281371],NdMo5O8,0.378387082,P2_1/c,y,y,1973,,Ar,{},"{""step1"": {""cool rate"": [{""value"": ""50"", ""unit"": ""C/h""}], ""cool time"": [], ""cool medium"": [], ""cool type"": [], ""end temperature"": [{""value"": ""1373"", ""unit"": ""K""}], ""remark"": []}, ""step2"": {""cool rate"": [], ""cool time"": [], ""cool medium"": [], ""cool type"": [""furnace cool""], ""end temperature"": [""RT""], ""remark"": []}}",1,y,"Nd2O3, Mo, MoO3",,10.1107/S0108768103011194,2003,,FALSE
Nd-Nb-O,mp-557763,"[261878, 261876, 261877, 261874, 261875, 246383]",Nd3NbO7,0,Pnma,y,y,1773,AP,,"{""step1"": {""grind method"": [""wet ball milling""], ""wet/dry"": [""wet""], ""liquid"": []}}",{},1,,"Nd2O3, Nb2O5",,10.1016/j.jssc.2011.06.017,2011,,FALSE
Nd-Nb-O,mp-3727,"[261881, 261879, 109060, 261880, 67737, 165065, 10057]",Nd3NbO7,0.01340353,Cmcm,y,y,,,,{},{},,,,,10.1016/j.jssc.2011.06.017,2011,high temperature phase of mp-557763,FALSE
Nd-Nb-O,mp-3901,"[73391, 246956, 246955, 100836, 10124, 37243]",NdNbO4,0,C2/c,y,y,1553,AP,,"{""step1"": {""grind method"": [""ball milling""], ""wet/dry"": [], ""liquid"": [""isopropanol""]}}",{},2,,"Nd2O3, Nb2O5",,10.1111/jace.16290,2018,,FALSE
Nd-Ni-O,mp-18737,"[66060, 63407, 14113, 189373, 66059]",Nd2NiO4,0.162594631,Cmce,y,y,,,,{},{},1,,"NiO, Nd2O3",,10.1209/0295-5075/11/3/013,1990,,FALSE
Nd-Ni-O,mp-19191,"[174038, 71137, 189372, 248651]",Nd2NiO4,0.322470382,I4/mmm,y,y,,,,{},{},,,,,10.1143/JPSJ.33.574,1972,high temperature phase of mp-18737,FALSE
Nd-Ni-O,mp-505052,"[248653, 248652, 66061]",Nd2NiO4,0.070291985,P4_2/ncm,y,y,,,,{},{},,,,,10.1209/0295-5075/11/3/013,1990,low temperature phase of mp-18737,FALSE
Nd-Ni-O,mp-555135,[91101],Nd4Ni3O10,0.053038902,P2_1/c,y,y,1373,0.0001,O2,"{""step1"": {""grind method"": [""agate mortar""], ""wet/dry"": [], ""liquid"": []}}",{},2,,"Nd2O3, NiO",,arxiv.org/abs/2006.10988,2020,,FALSE
Nd-Ni-O,mp-18738,"[51097, 73699, 173373]",Nd4Ni3O8,0.282922171,I4/mmm,n,n,,,,{},{},,,Nd4Ni3O10,reduction,10.1016/j.physc.2013.02.002,2013,,FALSE
Nd-Ni-O,mp-31063,[98585],NdNiO2,0.430801472,P4/mmm,n,n,,,,{},{},,,"NdNiO3, CaH2",reduction,10.1103/PhysRevMaterials.4.084409,2020,,FALSE
Nd-Ni-O,mp-22106,"[155746, 67725, 164825, 67724, 416213, 78319, 164562, 155747, 67723, 69788, 155748, 67722, 24875, 416212]",NdNiO3,0,Pnma,y,y,1273,0.02,O2,{},{},2,,"Nd2O3, NiO",,10.1016/0022-4596(91)90077-U,1991,,FALSE
Nd-Os-O,mp-17666,[59755],Nd3OsO7,0.000322035,Cmcm,y,y,1223,,"O2,air",{},{},2,,"Nd2O3, Os",,10.1016/S0022-4596(02)00057-9,2002,,FALSE
Nd-Os-O,mp-541640,[200870],Nd4Os6O19,0,I23,n,n,,,,{},{},,,"Nd, Os, NaClOs, KCl",flux,10.1016/0022-5088(81)90182-X,1981,,TRUE
Nd-Os-O,mp-621994,[200690],NdOsO4,0,Pna2_1,y,y,1173,0,vacuum,{},"{""step1"": {""cool rate"": [], ""cool time"": [], ""cool medium"": [], ""cool type"": [""quench""], ""end temperature"": [""RT""], ""remark"": []}}",1,,"Nd2O3, Os, KClO3",,10.1016/0022-1902(80)80327-7,1980,inhomogeneous,FALSE
Nd-Pd-O,mp-15051,[78844],NdPd2O4,0,I4_1/a,y,y,1125,2,inert gas,{},{},1,,"Nd2O3, PdO, KClO3",,10.1002/zaac.19966220617,1996,,TRUE
Nd-Pd-O,mp-29791,[88671],Nd4PdO7,0.017814042,P-1,y,y,1400,,O2,{},{},2,,"Nd2O3, Pd",,10.1361/105497199770340545,1999,,FALSE
Nd-Pt-O,mp-9765,[402456],Nd2Pt2O7,0,Fd-3m,y,y,1473,4,,{},{},1,,"Nd2O3, PtO2",,10.1021/ic50070a017,1968,,FALSE
Nd-Re-O,mp-17451,[96411],Nd3ReO7,0.060471038,Cmcm,y,y,1273,0,vacuum,"{""step1"": {""grind method"": [""agate mortar""], ""wet/dry"": [], ""liquid"": []}}","{""step1"": {""cool rate"": [], ""cool time"": [], ""cool medium"": [], ""cool type"": [""furnace cool""], ""end temperature"": [""RT""], ""remark"": []}}",3,,"Nd2O3, ReO3",,10.1016/S0022-4596(02)00210-4,2003,,FALSE
Nd-Re-O,mp-13758,[15042],Nd4Re2O11,0,P4_2/n,y,y,1573,,,{},{},1,,"ReO2, Nd2O3",,10.3891/acta.chem.scand.24-3406,1970,,FALSE
Nd-Rh-O,mp-4582,"[188151, 172355, 172349]",NdRhO3,0,Pnma,y,y,1300,6,,{},"{""step1"": {""cool rate"": [], ""cool time"": [], ""cool medium"": [], ""cool type"": [""quench""], ""end temperature"": [""RT""], ""remark"": []}}",1,,"Rh2O3, Lu2O3",,10.1016/j.jssc.2013.01.035,2013,,FALSE
Nd-Ru-O,mp-19930,"[195798, 195799, 195796, 195795, 195797, 195801, 195800, 82304, 78133, 161572, 79327]",Nd2Ru2O7,0.006761092,Fd-3m,y,y,1423,AP,,{},{},2,,"Nd2O3, RuO2",,10.1039/C5CP03340C,2015,,FALSE
Nd-Ru-O,mp-17753,"[63084, 190762]",Nd3RuO7,0,Cmcm,y,y,1473,AP,,{},{},1,,"Nd2O3, RuO2",,10.1088/0953-8984/13/48/308,2001,,FALSE
Nd-Sb-O,mp-3782,"[67355, 67021]",Nd3Sb5O12,0,I-43m,y,y,963,0,vacuum,{},"{""step1"": {""cool rate"": [], ""cool time"": [], ""cool medium"": [], ""cool type"": [""quench""], ""end temperature"": [""RT""], ""remark"": []}}",1,,"Sb2O3, Nd2O3",,10.1016/0022-5088(89)90470-0,1989,,FALSE
Nd-Sb-O,mp-754269,[188502],Nd3SbO7,0.00964781,Cmcm,y,?,,,,{},{},,,,,10.1016/j.jssc.2013.05.001,2013,other phase of mp-769366; minority phase,FALSE
Nd-Sb-O,mp-769366,[188503],Nd3SbO7,0,Cmcm,y,y,1773,AP,,"{""step1"": {""grind method"": [""pestle and mortar""], ""wet/dry"": [], ""liquid"": []}}",{},1,,"Sb2O5, Nd2O3",,10.1016/j.jssc.2013.05.001,2013,,FALSE
Nd-Sb-O,mp-13195,[245048],NdSbO4,0,P2_1/c,y,y,1073,0,vacuum,"{""step1"": {""grind method"": [""ball milling""], ""wet/dry"": [], ""liquid"": []}}",{},3,,"Sb2O5, Nd2O3",,10.1002/zaac.200600249,2006,excess Sb2O5,TRUE
Nd-Sc-O,mp-31117,[99540],NdScO3,0,Pnma,y,y,1748,AP,,"{""step1"": {""grind method"": [""agate mortar""], ""wet/dry"": [], ""liquid"": [""acetone""]}}",{},2,,"Nd2O3, Sc2O3",,10.1016/j.jssc.2004.02.025,2004,inhomogeneous,FALSE
Nd-Se-O,mp-1198525,[413487],NdSe3O12,0.055512529,P6_3/m,?,?,,,,{},{},,,,,,,ICSD 413487 contain hydrogen,N/A
Nd-Se-O,mp-1202414,[424093],Nd10Se14O,0.005979264,I4_1/acd,n,n,,,,{},{},,,"Nd, Se, SeO2",flux,10.3390/cryst2031136,2012,,FALSE
Nd-Se-O,mp-1200225,[413943],Nd2Se3O12,0.184910896,C2/c,?,?,,,,{},{},,,,,,,ICSD 413943 contain hydrogen,N/A
Nd-Se-O,mp-13971,[25806],Nd2SeO2,0,P-3m1,n,n,,,,{},{},,,"Nd2O3, H2Se",solid-gas reaction,10.1107/S0365110X60000339,1960,,FALSE
Nd-Se-O,mp-553278,[419129],Nd4Se3O4,0,Amm2,y,y,1023,0,vacuum,{},"{""step1"": {""cool rate"": [{""value"": ""5"", ""unit"": ""C/h""}], ""cool time"": [], ""cool medium"": [], ""cool type"": [], ""end temperature"": [""RT""], ""remark"": []}}",1,,"SeO2, Nd, Se",,10.1021/ic800233c,2008,,FALSE
Nd-Sn-O,mp-17114,[82958],Nd2Sn2O7,0,Fd-3m,y,y,1673,AP,,{},{},1,,"Nd2O3, SnO2",,10.1143/JPSJ.71.1576,2002,,FALSE
Nd-Ta-O,mp-1192039,[55658],Nd3TaO7,0.005050335,Cmcm,y,y,,,,{},{},,,,,10.1088/0953-8984/16/23/025,2004,high temperature phase of mp-31417,FALSE
Nd-Ta-O,mp-31417,[55659],Nd3TaO7,0,Cmcm,y,y,1873,AP,,{},{},1,,"Ta2O5, Nd2O3",,10.1088/0953-8984/16/23/025,2004,,FALSE
Nd-Ta-O,mp-28653,[66284],NdTa3O9,0,P2_1/m,?,?,,,,{},{},,,,,,,"might be other refinement or phase of orthorhombic NdTa3O9, which can be synthesized via solid state synthesis 10.1023/A:1011360418213",N/A
Nd-Ta-O,mp-14676,[66010],NdTa7O19,0.001034355,P-6c2,n,n,,,,{},{},,,,chemical transport reaction,10.1002/zaac.19905880106,1990,,TRUE
Nd-Ta-O,mp-3203,"[415430, 69379, 62318]",NdTaO4,0,P2/c,y,y,1523,AP,,"{""step1"": {""grind method"": [""ball milling""], ""wet/dry"": [], ""liquid"": []}, ""step2"": {""grind method"": [""milling""], ""wet/dry"": [], ""liquid"": [""Freon-TF solvent""]}}",{},2,,"Nd2O3, Ta2O3",,10.1149/1.2119609,1983,M'-type,FALSE
Nd-Ta-O,mp-4718,"[37244, 79498, 16370, 153359]",NdTaO4,0.004244465,C2/c,y,y,,,,{},{},,,,,10.1016/0022-4596(80)90489-2,1980,"M-type; other phase of mp-3203, which can be synthesized via solid state synthesis",FALSE
Nd-Ta-O,mp-18433,[90451],NdTaO4,0.015304225,P2_1/c,y,y,,,,{},{},,,,,10.1016/S0925-8388(00)01043-4,2000,high temperature/pressure phase of mp-4718,FALSE
Nd-Tc-O,mp-1191821,[236758],Nd2Tc2O7,0.033055422,Fd-3m,y,y,1423,0,vacuum,"{""step1"": {""grind method"": [""agate mortar""], ""wet/dry"": [], ""liquid"": [""ethanol""]}}",{},1,,"Nd2O3,  TcO2",,10.1016/j.proche.2012.10.095,2012,,FALSE
Nd-Te-O,mp-5121,"[413654, 68878]",Nd2Te4O11,0,C2/c,y,y,993,AP,,{},{},3,,"Nd2O3, TeO3",,10.1016/S0022-4596(05)80065-9,1990,,FALSE
Nd-Te-O,mp-5459,"[22250, 89560]",Nd2TeO2,0,I4/mmm,y,y,1023,0,vacuum,{},{},1,,"TeO2, Nd2O3",,10.1002/(SICI)1521-3749(199911)625:11<1833::AID-ZAAC1833>3.0.CO;2-8,1999,from abstract,FALSE
Nd-Te-O,mp-31318,[409802],Nd2TeO6,0,P2_12_12_1,y,y,1073,0,vacuum,{},"{""step1"": {""cool rate"": [{""value"": ""5"", ""unit"": ""C/h""}], ""cool time"": [], ""cool medium"": [], ""cool type"": [], ""end temperature"": [""RT""], ""remark"": []}}",1,y,"Nd2O3, TeO3",,10.1524/ncrs.2004.219.14.391,2004,,FALSE
Nd-Ti-O,mp-12193,"[4133, 153232, 188658]",Nd2Ti2O7,0,P2_1,y,y,1773,AP,,{},"{""step1"": {""cool rate"": [{""value"": ""3000"", ""unit"": ""C/h""}], ""cool time"": [], ""cool medium"": [], ""cool type"": [], ""end temperature"": [""RT""], ""remark"": []}}",1,,"Nd2O3, TiO2",,10.1016/j.jssc.2004.12.030,2005,,FALSE
Nd-Ti-O,mp-555785,[164026],Nd2Ti2O7,0.040158393,Fd-3m,y,?,,,,{},{},,,,,10.1557/jmr.2009.0152,2009,modelling of cubic perovskite Nd2Ti2O7,FALSE
Nd-Ti-O,mp-654139,[71607],Nd2Ti4O11,0,C2/c,?,?,,,,{},{},,,,,10.1016/j.jallcom.2012.08.112,2013,other refinement of mp-557587,FALSE
Nd-Ti-O,mp-17904,"[195209, 262619, 2898, 247560]",Nd2TiO5,0,Pnma,y,y,1573,,,"{""step1"": {""grind method"": [""agate mortar""], ""wet/dry"": [], ""liquid"": []}}",{},1,,"Nd2O3, TiO2",,10.1016/j.jssc.2011.12.033,2012,,FALSE
Nd-Ti-O,mp-582794,[73842],Nd3Ti4O12,0.00204353,Pnma,n,n,,,,{},{},,,"Nd2O3, TiO2, Ti2O3, Bi2O3",flux,10.1006/jssc.1993.1198,1993,,FALSE
Nd-Ti-O,mp-557587,[72316],Nd4Ti9O24,0.013873327,Fddd,y,y,1423,AP,,"{""step1"": {""grind method"": [""mixed""], ""wet/dry"": [], ""liquid"": [""ethanol""]}}","{""step1"": {""cool rate"": [], ""cool time"": [], ""cool medium"": [""air""], ""cool type"": [""quench""], ""end temperature"": [""RT""], ""remark"": []}}",1,,"Nd2O3, TiO2",,10.1016/j.jallcom.2012.08.112,2013,,FALSE
Nd-Ti-O,mp-3119,"[82008, 8147, 82011]",NdTiO3,0.042039599,Pnma,y,y,1773,0,vacuum,{},{},1,,"Nd2O3, TiO2",,10.1016/0304-8853(84)90257-9,1984,,FALSE
Nd-V-O,mp-541129,"[185834, 63522]",NdVO3,0.036333406,Pnma,y,y,1473,0,vacuum,{},"{""step1"": {""cool rate"": [], ""cool time"": [], ""cool medium"": [], ""cool type"": [""slow cooling""], ""end temperature"": [""RT""], ""remark"": []}}",1,,"Nd2O3, V2O5",,10.1016/0025-5408(74)90049-X,1974,,FALSE
Nd-V-O,mp-19253,[28928],NdVO3,0.17664539,Pm-3m,y,?,,,,{},{},,,,,10.1021/ja01633a031,1954,might be old refinement of mp-541129,FALSE
Nd-V-O,mp-18812,"[16299, 191450, 15610, 157328, 78077]",NdVO4,0,I4_1/amd,y,y,1373,AP,,{},{},2,,"Nd2O3, V2O5",,10.1016/j.materresbull.2013.10.047,2014,,FALSE
Nd-W-O,mp-17950,[260290],Nd2W3O12,0.025151234,C2/c,y,y,1318,AP,,{},{},1,,"Nd2O3, WO3",,10.1016/0022-3697(69)90380-1,1969,alpha phase,FALSE
Nd-W-O,mp-560076,[241226],Nd2W2O9,0,P2_1/c,y,y,1323,AP,,{},"{""step1"": {""cool rate"": [{""value"": ""300"", ""unit"": ""C/h""}], ""cool time"": [], ""cool medium"": [], ""cool type"": [], ""end temperature"": [""RT""], ""remark"": []}}",2,,"Nd2O3, WO3",,10.1016/j.jssc.2012.07.049,2012,,FALSE
Nd-W-O,mp-18057,[20934],Nd2WO6,0,P2_12_12_1,y,y,,,,{},{},,,,,10.1021/acs.chemmater.0c01405,2020,high temperature phase of mp-18479,FALSE
Nd-W-O,mp-18479,[20105],Nd2WO6,0.055000117,C2/c,y,y,1823,AP,,"{""step1"": {""grind method"": [""ball milling""], ""wet/dry"": [], ""liquid"": [""acetone""]}}",{},3,,"Nd2O3, WO3",,10.2109/jcersj2.15155,2016,,FALSE
Nd-W-O,mp-1193363,[27731],NdWO5,0.166020783,P2_1/c,?,?,,,,{},{},,,,,,,ICSD 27731 contain hydrogen,N/A
Nd-Zr-O,mp-561167,[160164],Nd2Zr2O7,0.366409915,Fd-3m,y,?,,,,{},{},,,,,10.1016/j.jssc.2007.07.007,2007,off-stoichiometric,FALSE