system,mp_id,icsd_ids,composition,e_above_hull,Spacegroup Number,solid_state_synthesized_composition,solid_state_synthesized_structure,sss_highest_temperature(K),sss_pressure(GPa),sss_atmosphere,sss_mixing_condition,sss_cooling_condition,sss_heating_step,single_crystal,sss_precursor,other_synthesis_method,reference,reference_year,comment,google_translate
Lu-Mn-O,mp-19153,[56518],Lu2Mn2O7,0,Fd-3m,y,y,1573,0.04,O2/Ar,{},{},1,,"Lu2O3, MnO2",,10.1103/PhysRevB.59.1249,1998,,FALSE
Lu-Mn-O,mp-542397,[97050],LuMn2O5,0.252374547,Pbam,y,y,1173,AP,,{},{},1,,"Mn2O3, Lu2O3",,10.1023/B:GPAC.0000038708.77042.9f,2004,inhomogeneous,FALSE
Lu-Mn-O,mp-21125,"[162211, 160377, 160376]",LuMnO3,0.050683611,Pnma,y,y,,,,{},{},,,,,10.1016/j.ssc.2006.08.029,2006,high temperature/pressure phase of mp-18808,FALSE
Lu-Mn-O,mp-18808,"[280779, 15882, 290487, 98058, 158898, 158897, 98059, 162204, 158896]",LuMnO3,0,P6_3cm,y,y,1573,AP,,{},{},2,,"Lu2O3, Mn2O3",,10.1016/j.ssc.2006.08.029,2006,,FALSE
Lu-Mo-O,mp-558119,[418644],Lu4Mo4O11,0.182255224,P2/m,y,y,1773,,,{},"{""step1"": {""cool rate"": [{""value"": ""300"", ""unit"": ""C/h""}], ""cool time"": [], ""cool medium"": [], ""cool type"": [], ""end temperature"": [{""value"": ""1100"", ""unit"": ""C""}], ""remark"": []}, ""step2"": {""cool rate"": [], ""cool time"": [], ""cool medium"": [], ""cool type"": [""furnace cool""], ""end temperature"": [""RT""], ""remark"": []}}",1,,"MoO3, Mo, Mn2O3",,10.1016/j.jssc.2007.10.024,2008,,FALSE
Lu-Nb-O,mp-644492,[109182],LuNbO4,0,C2/c,y,y,1523,AP,,{},"{""step1"": {""cool rate"": [], ""cool time"": [], ""cool medium"": [], ""cool type"": [""slow cooling""], ""end temperature"": [""RT""], ""remark"": []}}",1,,"Lu2O3, Nb2O5",,10.1016/j.jlumin.2016.09.020,2017,,FALSE
Lu-Ni-O,mp-19327,"[191796, 92051]",LuNiO3,0.014404339,Pnma,y,y,,,,{},{},,,,,10.1103/PhysRevB.64.094102,2001,high temperature phase of mp-1105866,FALSE
Lu-Ni-O,mp-1105866,[191792],LuNiO3,0.015785506,P2_1/c,y,y,1173,2,,{},"{""step1"": {""cool rate"": [], ""cool time"": [], ""cool medium"": [], ""cool type"": [""quench""], ""end temperature"": [""RT""], ""remark"": []}}",1,,"Lu2O3, NiO, KClO4",,10.1103/PhysRevB.61.1756,1999,,FALSE
Lu-Pd-O,mp-17662,[84779],Lu2PdO4,0.047469195,Cmce,y,y,1373,6,,{},{},1,,"Lu2O3, Pd, KClO3",,10.1006/jssc.1997.7444,1997,off-stoichiometric,FALSE
Lu-Rh-O,mp-1205366,[188152],LuRhO3,0,Pnma,y,y,1300,6,,{},"{""step1"": {""cool rate"": [], ""cool time"": [], ""cool medium"": [], ""cool type"": [""quench""], ""end temperature"": [""RT""], ""remark"": []}}",1,,"Rh2O3, Lu2O3",,10.1016/j.jssc.2013.01.035,2013,,FALSE
Lu-Ru-O,mp-557903,[109308],Lu2Ru2O7,0.052179053,Fd-3m,y,y,1173,AP,,{},{},2,,"RuO2, Lu2O3",,10.1006/jssc.1998.8113,1999,inhomogeneous,FALSE
Lu-Sn-O,mp-15170,"[82965, 187725]",Lu2Sn2O7,0,Fd-3m,y,y,1473,AP,,"{""step1"": {""grind method"": [""agate mortar""], ""wet/dry"": [], ""liquid"": []}}",{},1,,"Lu2O3, SnO2",,10.1134/S0020168517050053,2017,inhomogeneous,FALSE
Lu-Ta-O,mp-12862,[153366],LuTaO4,0.009077842,C2/c,y,y,,,,{},{},,,,,10.1016/S0020-1693(00)81058-0,1987,M-type; high temperature phase of mp-5489,FALSE
Lu-Ta-O,mp-5489,"[155662, 20261, 415461]",LuTaO4,0,P2/c,y,y,1673,,inert gas,"{""step1"": {""grind method"": [""agate mortar""], ""wet/dry"": [], ""liquid"": []}}",{},1,,"Lu2O3, Ta2O5",,10.1016/j.mseb.2013.08.003,2013,M'-type,FALSE
Lu-Te-O,mp-1202045,[424872],Lu2Te3O9,0,P-1,n,n,,,,{},{},,,"Lu2O3, TeO2, CsCl",flux,10.1002/zaac.201300399,2013,,FALSE
Lu-Te-O,mp-542676,[170699],Lu2Te4O11,0.011561614,C2/c,?,?,,,,{},{},,,"Lu2O3, TeO2, CsCl",,10.1107/S1600536805016090,2005,insufficent information; method seems to suggest the heating of Lu2O3 and TeO2 alone is sufficent for the synthesis,FALSE
Lu-Te-O,mp-557829,[413669],Lu2Te5O13,0,P-1,n,n,,,,{},{},,,"CsCl, TeO2, Lu2O3",flux,10.1515/znb-2005-0704,2005,,TRUE
Lu-Ti-O,mp-3200,"[164021, 24205, 191612]",Lu2Ti2O7,0.02188859,Fd-3m,y,y,1723,AP,,{},{},4,,"TiO2, Lu2O3",,10.1139/v69-155,1969,,FALSE
Lu-U-O,mp-20402,[23967],Lu6UO12,0,R-3,y,y,,,,{},{},1,,"Lu2O3, UO3",,10.1021/ic50017a005,1964,,FALSE
Lu-V-O,mp-642783,[160599],Lu2V2O7,0.596454308,Fd-3m,y,?,,,,{},{},,,,,10.1016/j.jcrysgro.2007.10.069,2008,other refinement of mp-20406,FALSE
Lu-V-O,mp-20406,"[159286, 32688, 159290]",Lu2V2O7,0.000995505,Fd-3m,y,y,1673,0,vacuum,{},{},1,,"Lu2O3, V2O4",,10.1016/0025-5408(79)90225-3,1979,,FALSE
Lu-V-O,mp-755583,"[185841, 185830]",LuVO3,0.001445163,Pnma,?,?,,,,{},{},,,,,10.1016/j.jcrysgro.2012.04.034,2012,insufficient information: uncertain about the use of CHCl3,FALSE
Lu-V-O,mp-18993,"[162328, 419279, 162331, 419281, 15600, 162327, 189235, 162332, 246685, 419284, 164836, 162329, 419285, 419283, 162325, 419289, 162326, 160958, 78083, 160961, 162333, 419280, 419282, 162335, 162334, 419286, 419288, 419287, 191369, 162330]",LuVO4,0,I4_1/amd,y,y,1273,AP,,{},{},1,,"Lu2O3, V2O5",,10.1088/0953-8984/20/7/075223,2008,,FALSE
Lu-V-O,mp-19295,"[160962, 160959, 189236]",LuVO4,0.03457021,I4_1/a,y,y,,,,{},{},,,,,10.1088/0953-8984/20/7/075223,2008,high pressure phase of mp-18993,FALSE
Lu-W-O,mp-555747,[161694],Lu2WO6,0,P2/c,y,y,1373,AP,,"{""step1"": {""grind method"": [""agate mortar""], ""wet/dry"": [], ""liquid"": []}}","{""step1"": {""cool rate"": [], ""cool time"": [], ""cool medium"": [], ""cool type"": [""furnace cool""], ""end temperature"": [""RT""], ""remark"": []}}",1,,"Lu2O3, WO3",,10.1016/j.jallcom.2007.11.050,2008,,FALSE
Mg-Al-O,mp-556870,[161057],MgAl2O4,0.107910211,Cmcm,y,?,,,,{},{},,,,,10.1007/s00269-008-0231-9,2007,modelling of high pressure phase of mp-3536,FALSE
Mg-Al-O,mp-5857,"[98037, 161056, 157186]",MgAl2O4,0.098897062,Pnma,y,y,,,,{},{},,,,,10.1029/98JB01575,1998,high pressure phase of mp-3536,FALSE
Mg-Al-O,mp-3536,"[24492, 39162, 24766, 39163, 162259, 182859, 167484, 290115, 39164, 79000, 31375, 185608, 31376, 26845, 56116, 31373, 26846, 52388, 201174, 161055, 86506, 39161, 657031, 40030, 172280, 655149, 157768, 22354]",MgAl2O4,0,Fd-3m,y,y,1773,AP,,{},{},1,,"MgO, Al2O3",,10.1016/j.matlet.2004.01.033,2004,,FALSE
Mg-As-O,mp-5618,"[16885, 23548]",Mg2As2O7,0,C2/m,n,n,,,,{},{},,,,decomposition,10.1139/v70-146,1970,,FALSE
Mg-As-O,mp-1202676,[83638],Mg2As2O9,0.440281252,P2_1/c,?,?,,,,{},{},,,,,,,ICSD 83638 contain hydrogen,N/A
Mg-As-O,mp-1199509,[84846],Mg2AsO5,0.067306265,Pnnm,?,?,,,,{},{},,,,,,,ICSD 84846 contain hydrogen,N/A
Mg-As-O,mp-1204555,[78],MgAsO8,0.756312548,Pbca,?,?,,,,{},{},,,,,,,ICSD 78 contain hydrogen,N/A
Mg-Bi-O,mp-28447,[50005],MgBi2O6,0,P4_2/mnm,n,n,,,,{},{},,,,hydrothermal,10.1039/B300635B,2003,,FALSE
Mg-Cr-O,mp-1103779,"[193548, 236871]",MgCr2O4,1.909740058,Cmcm,y,y,,,,{},{},,,,,10.1016/j.jpcs.2014.01.008,2014,high temperature/pressure phase of mp-19202,FALSE
Mg-Cr-O,mp-19202,"[193400, 160954, 290588, 171107, 75623, 626239, 250576, 290599, 52386, 97202, 171106, 160953, 167459, 290589, 97201]",MgCr2O4,1.784467739,Fd-3m,y,y,1673,AP,,{},{},2,,"MgO, Cr2O3",,10.1088/0953-8984/20/10/104238,2008,,FALSE
Mg-Cr-O,mp-19120,[18117],MgCrO4,0.891498828,Cmcm,y,y,953,0.253,O2,"{""step1"": {""grind method"": [""mixed""], ""wet/dry"": [], ""liquid"": [""ethanol""]}}","{""step1"": {""cool rate"": [], ""cool time"": [], ""cool medium"": [""water""], ""cool type"": [""quench""], ""end temperature"": [""RT""], ""remark"": []}}",1,,"MgO, Cr2O3·xH2O",,10.1111/j.1151-2916.1968.tb15930.x,1968,alpha phase,FALSE
Mg-Cr-O,mp-504578,[18120],MgCrO4,0.90213381,C2/m,y,y,,,,{},{},,,,,10.1111/j.1151-2916.1968.tb15930.x,1968,beta phase; high temperature/pressure phase of mp-19120,FALSE
Mg-Cu-O,mp-27226,[4202],MgCu2O3,0.054512508,Pmmn,y,y,1223,AP,,{},"{""step1"": {""cool rate"": [], ""cool time"": [], ""cool medium"": [], ""cool type"": [""quench""], ""end temperature"": [""RT""], ""remark"": []}}",2,,"CuO, Mg(NO3)",,10.1016/0038-1098(89)90100-2,1989,excess CuO,FALSE
Mg-Fe-O,mp-579284,[157694],MgFe2O4,0.634743506,P4_122,y,y,,,,{},{},,,,,10.2138/am.2007.2485,2007,"modelling of spinel MgFe2O4, which can be synthesized via solid state synthesis: 10.7598/cst2017.1401 ",FALSE
Mg-Fe-O,mp-608016,[24493],MgFe2O4,0.006688246,Fd-3m,y,y,1373,AP,,"{""step1"": {""grind method"": [""agate mortar""], ""wet/dry"": [], ""liquid"": []}}","{""step1"": {""cool rate"": [{""value"": ""60"", ""unit"": ""C/h""}], ""cool time"": [], ""cool medium"": [], ""cool type"": [""quench""], ""end temperature"": [""RT""], ""remark"": []}}",1,,"MgO, Fe2O3",,10.1007/BF00900525,1974,,FALSE
Mg-Ga-O,mp-4590,"[86507, 157769]",MgGa2O4,0.007095026,Fd-3m,y,y,,,,{},{},,,,,10.1140/epjb/e2007-00003-1,2007,"modelling of spinel MgIn2O4, which can be synthesized via solid state synthesis: 10.1016/j.jallcom.2013.09.176",FALSE
Mg-Ge-O,mp-27295,[9371],Mg14Ge5O24,0.039178467,Pbam,y,y,1473,AP,,"{""step1"": {""grind method"": [""mixed""], ""wet/dry"": [], ""liquid"": [""acetone""]}}",{},2,,"MgO, GeO2",,10.1016/0022-4596(70)90058-7,1970,doped: Mn 1%,FALSE
Mg-Ge-O,mp-3904,"[161258, 1086, 86505]",Mg2GeO4,0.000341342,Fd-3m,y,y,,,,{},{},,,,,10.1107/S056774087700822X,1977,high temperature/pressure phase of mp-3051,FALSE
Mg-Ge-O,mp-3051,"[63533, 41415]",Mg2GeO4,0,Pnma,y,y,1373,AP,,{},{},1,,"MgO, GeO2",,10.1107/S056774087700822X,1977,,FALSE
Mg-Ge-O,mp-3759,"[200415, 171788, 171790, 40333, 171787, 171789, 171786]",MgGeO3,0.06417992,R-3,y,y,,,,{},{},,,,,https://pubs.geoscienceworld.org/msa/ammin/article/73/11-12/1355/42078,1988,high temperature/pressure phase of mp-4575,FALSE
Mg-Ge-O,mp-4819,"[196439, 201660, 201661, 201664, 201662, 201663, 35534]",MgGeO3,0,C2/c,y,y,,,,{},{},,,,,https://pubs.geoscienceworld.org/msa/ammin/article/73/11-12/1355/42078,1988,high temperature/pressure phase of mp-4575,FALSE
Mg-Ge-O,mp-3047,"[160825, 160830, 160850, 160838, 160840, 160846, 160827, 160849, 160851, 160839, 160828, 171826, 160829, 160836, 171825, 160844, 160843, 160854, 160834, 160833, 160841, 160835, 160856, 160853, 160842, 160824, 160831, 160826, 160845, 160852, 160832, 160847, 160837, 160855, 160848]",MgGeO3,0.156682659,Cmcm,y,y,,,,{},{},,,,,10.2138/am.2008.2691,2008,high temperature/pressure phase of mp-4575,FALSE
Mg-Ge-O,mp-4575,"[201666, 35533, 201665]",MgGeO3,0.045969632,Pbca,y,y,1273,AP,,{},{},1,,"MgO, GeO2",,https://pubs.geoscienceworld.org/msa/ammin/article/73/11-12/1355/42078,1988,,FALSE
Mg-In-O,mp-7831,[157770],MgIn2O4,0.02690649,Fd-3m,y,y,,,,{},{},,,,,10.1140/epjb/e2007-00003-1,2007,"modelling of spinel MgIn2O4, which can be synthesized via solid state synthesis: 10.1023/A:1006669417803",FALSE
Mg-Mn-O,mp-19239,"[82182, 27874, 76174, 24710]",Mg6MnO8,0,Fm-3m,y,y,973,,O2,"{""step1"": {""grind method"": [""ball milling""], ""wet/dry"": [], ""liquid"": [""acetone""]}}",{},2,,"Mg(CH3COO)2·4H2O, Mn(CH3COO)2·4H2O",,10.1006/jssc.1996.0229,1996,,FALSE
Mg-Mn-O,mp-27510,"[290600, 16858]",MgMn2O4,0,I4_1/amd,y,y,1473,AP,,{},"{""step1"": {""cool rate"": [{""value"": ""600"", ""unit"": ""C/h""}], ""cool time"": [], ""cool medium"": [], ""cool type"": [], ""end temperature"": [""RT""], ""remark"": []}}",1,,"MgO, Mn2O3",,10.1006/jssc.2002.9577,2002,,FALSE
Mg-Mo-O,mp-19139,"[44622, 248080, 82362]",Mg2Mo3O8,0.067499915,P6_3mc,y,y,1423,0,vacuum,{},{},1,,"MgO, Mo, MoO3",,10.1021/ja01577a021,1957,inhomogeneous,FALSE
Mg-Mo-O,mp-27604,[1314],MgMo2O7,0,P2_1/c,y,y,,,,{},{},,,,,10.1007/BF00729173,1992,"high temperature phase of MgMo2O7, which can be synthesized via solid state synthesis",FALSE
Mg-Mo-O,mp-19047,[20418],MgMoO4,0,C2/m,y,y,1173,AP,,{},{},1,,"MgO, MoO3",,10.1088/0953-8984/20/36/365219,2008,,FALSE
Mg-Nb-O,mp-505365,"[200210, 62662]",Mg3Nb6O11,0,P-3m1,y,y,1873,,Ar,{},{},1,,"Nb, Nb2O5, MgO",,10.1515/znb-1987-0504,1986,inhomogeneous,TRUE
Mg-Nb-O,mp-17841,[91748],Mg4Nb2O9,0,P-3c1,y,y,1673,AP,,{},{},2,,"MgO, Nb2O5",,10.1016/S0022-0248(07)80055-8,1993,,FALSE
Mg-Nb-O,mp-17953,[85008],MgNb2O6,0,Pbcn,y,y,1423,AP,,{},{},1,,"MgO, Nb2O5",,10.1006/jssc.1997.7538,1997,,FALSE
Mg-Pt-O,mp-8208,[35340],MgPt3O6,0,Cmmm,y,y,1123,0.3,Ar,{},{},1,,"Mg(OH)2, PtO2",,10.1107/S010876818300230X,1983,inhomogeneous,FALSE
Mg-Rh-O,mp-3319,"[109299, 642718]",MgRh2O4,0.008981141,Fd-3m,y,y,1373,,O2,"{""step1"": {""grind method"": [""mixed""], ""wet/dry"": [], ""liquid"": [""acetone""]}}",{},1,,"Rh2O3, MgO",,10.1016/0040-6031(93)80450-O,1993,ICSD 642718 not found,FALSE
Mg-Sb-O,mp-27219,[4122],MgSb2O4,0,P4_2/mbc,y,y,973,,Ar,{},{},1,,"Sb2O3, MgO",,10.1016/0008-4433(96)00010-9,1996,,FALSE
Mg-Sb-O,mp-3653,"[40345, 108963]",MgSb2O6,0,P4_2/mnm,y,y,1273,AP,,{},{},1,,"MgO, Sb2O3",,10.1180/minmag.2015.079.3.03,2014,,FALSE
Mg-Se-O,mp-16771,[402917],MgSe2O5,0,Pbcn,n,n,,,,{},{},,,"MgCO3, H2SeO3",hydrothermal,10.1524/zkri.1996.211.10.700,1996,,FALSE
Mg-Se-O,mp-12271,[494],MgSeO3,0,Pnma,y,y,1273,7,,{},"{""step1"": {""cool rate"": [], ""cool time"": [], ""cool medium"": [], ""cool type"": [""quench""], ""end temperature"": [""RT""], ""remark"": []}}",1,,"MgO, SeO2",,10.1016/0022-4596(76)90075-X,1976,,FALSE
Mg-Se-O,mp-560670,[109068],MgSeO4,0,Pnma,n,n,,,,{},{},,,MgSeO4·6H2O,decomposition,10.1016/0040-6031(94)02126-9,1995,,FALSE
Mg-Se-O,mp-12630,[109070],MgSeO4,0.001672261,Cmcm,n,n,,,,{},{},,,,,10.1524/zkri.1964.120.4-5.317,1964,high temperature/pressure phase of mp-560670,FALSE
Mg-Sn-O,mp-973261,"[187038, 167815]",Mg2SnO4,0.027771913,Fd-3m,y,y,,,,{},{},,,,,10.1016/j.physb.2010.06.058,2010,"modelling of spinel SnMg2O4, which can be synthesized via solid state synthesis: 10.1016/S0022-2313(02)00334-4",FALSE
Mg-Sn-O,mp-1180444,[25824],MgSnO6,0.733229343,Fm-3m,?,?,,,,{},{},,,,,,,ICSD 25824 contain hydrogen,N/A
Mg-Ta-O,mp-17481,[65301],Mg4Ta2O9,0,P-3c1,y,y,1723,AP,,"{""step1"": {""grind method"": [""mixed""], ""wet/dry"": [], ""liquid"": [""acetone""]}}",{},4,,"MgO, Ta2O5",,10.1016/j.jeurceramsoc.2006.11.064,2007,,FALSE
Mg-Ta-O,mp-9650,"[202688, 150419]",MgTa2O6,0,P4_2/mnm,y,y,2173,AP,,{},{},1,y,"Mg5(CO3)4(OH)2·5H2O, Ta2O5",,10.1016/0022-5088(88)90184-1,1988,ICSD 150419 not found,TRUE
Mg-Te-O,mp-769077,[424305],Mg2Te3O8,0,C2/c,y,y,953,,N2,{},{},1,,"MgO, TeO2",,10.1002/zaac.19703780304,1970,inhomogeneous,TRUE
Mg-Te-O,mp-3118,"[6309, 23611, 9089]",Mg3TeO6,0,R-3,y,y,1073,AP,,{},{},1,,"MgO, TeO2",,10.1107/S0567740871002954,1971,,FALSE
Mg-Te-O,mp-5746,"[171017, 4318]",MgTe2O5,0.007474074,Pbcn,y,y,993,AP,,"{""step1"": {""grind method"": [""ball milling""], ""wet/dry"": [], ""liquid"": [""distilled water""]}}",{},3,,"(MgCO3)4Mg(OH)2·5H2O, TeO2",,10.1557/JMR.2008.0212,2008,inhomogeneous,FALSE
Mg-Ti-O,mp-27872,"[28324, 184696]",MgTi2O4,0.015969221,Fd-3m,y,y,1353,0,vacuum,{},{},1,,"MgO, TiO2",,10.1103/PhysRevLett.92.056402,2004,ICSD 28324 not found,FALSE
Mg-Ti-O,mp-1194382,[184695],MgTi2O4,0.016599014,P4_12_12,y,y,,,,{},{},,,,,10.1103/PhysRevLett.92.056402,2004,low temperature phase of mp-27872,FALSE
Mg-Ti-O,mp-28232,[37232],MgTi2O5,0,Cmcm,y,y,1473,AP,,{},"{""step1"": {""cool rate"": [], ""cool time"": [], ""cool medium"": [], ""cool type"": [""quench""], ""end temperature"": [""RT""], ""remark"": []}}",1,,"TiO2, Mg(CH3COO)2·4H2O",,10.1021/cm7028239,2008,,FALSE
Mg-Ti-O,mp-3771,"[5314, 291380, 55285, 169658, 169660, 169655, 169646, 169649, 169657, 169644, 164766, 169653, 169643, 169659, 171793, 169648, 169652, 171792, 169656, 171791, 169642, 171794, 169661, 169651, 169645, 169654, 156217, 169650, 65794, 169647]",MgTiO3,0,R-3,y,y,1673,AP,,{},"{""step1"": {""cool rate"": [], ""cool time"": [], ""cool medium"": [], ""cool type"": [""furnace cool""], ""end temperature"": [""RT""], ""remark"": []}}",1,,,,10.1007/s11665-014-0950-7,2014,,FALSE
Mg-U-O,mp-7858,[24725],MgUO4,0,Imma,y,y,1723,AP,,"{""step1"": {""grind method"": [""mortar""], ""wet/dry"": [], ""liquid"": []}}",{},1,,"U3O8, MgO",,10.1111/j.1151-2916.1964.tb14637.x,1964,,FALSE
Mg-V-O,mp-27150,[2321],Mg2V2O7,0,P-1,y,y,,,,{},{},,,,,10.1111/j.1551-2916.2009.03078.x,2009,high temperature phase of mp-554767,FALSE
Mg-V-O,mp-554767,[93603],Mg2V2O7,0.001273198,P2_1/c,y,y,973,AP,,"{""step1"": {""grind method"": [""ball milling""], ""wet/dry"": [], ""liquid"": []}}",{},2,,"MgO, V2O5",,10.1111/j.1551-2916.2009.03078.x,2009,,FALSE
Mg-V-O,mp-30545,[76980],Mg2VO4,0.05629807,Fd-3m,y,y,1473,,,"{""step1"": {""grind method"": [""agate mortar""], ""wet/dry"": [], ""liquid"": [""acetone""]}}","{""step1"": {""cool rate"": [], ""cool time"": [], ""cool medium"": [], ""cool type"": [""quench""], ""end temperature"": [""RT""], ""remark"": []}}",1,,"MgO, V2O3",,10.1111/j.1151-2916.1980.tb10753.x,1980,,FALSE
Mg-V-O,mp-19034,"[156155, 21085]",Mg3V2O8,0,Cmce,y,y,1273,AP,,"{""step1"": {""grind method"": [""mixed""], ""wet/dry"": [], ""liquid"": [""ethanol""]}}",{},2,,"V2O5, MgO",,10.1163/1568567053956635,2005,,FALSE
Mg-V-O,mp-18900,"[248565, 76979, 56283, 60412]",MgV2O4,0.082410926,Fd-3m,y,y,1353,,H2/N2,{},{},1,,"MgO, V2O5",,10.1063/1.364518,1997,,FALSE
Mg-V-O,mp-19003,"[50979, 86102, 50981]",MgV2O5,0.026163452,Cmcm,y,y,1073,0,vacuum,{},{},1,,"VO2, MgO",,10.1006/jssc.1997.7654,1998,,FALSE
Mg-V-O,mp-504510,[10391],MgV2O6,0,C2/m,y,y,1173,AP,,"{""step1"": {""grind method"": [""agate mortar""], ""wet/dry"": [], ""liquid"": [""ethanol""]}}","{""step1"": {""cool rate"": [{""value"": ""180"", ""unit"": ""C/h""}], ""cool time"": [], ""cool medium"": [], ""cool type"": [], ""end temperature"": [""RT""], ""remark"": []}}",3,,"MgO, V2O5",,10.1016/j.jallcom.2019.05.081,2019,,FALSE
Mg-V-O,mp-545348,[15927],MgVO3,0.264283097,Cmmm,y,?,,,,{},{},,,,,10.1016/0022-4596(76)90056-6,1976,might be old refinement of mp-1079330,FALSE
Mg-V-O,mp-1079330,[284],MgVO3,0.184720742,Cmc2_1,y,y,1173,0,vacuum,{},{},1,,"MgO, VO2",,10.1016/0022-4596(76)90056-6,1976,,TRUE
Mg-W-O,mp-18875,"[67901, 67905, 22357, 67902, 67903, 67904, 20470]",MgWO4,0,P2/c,y,y,1473,AP,,"{""step1"": {""grind method"": [""ball milling""], ""wet/dry"": [], ""liquid"": [""deionized water""]}}","{""step1"": {""cool rate"": [{""value"": ""300"", ""unit"": ""C/h""}], ""cool time"": [], ""cool medium"": [], ""cool type"": [], ""end temperature"": [""RT""], ""remark"": []}}",2,,"MgO, WO3",,10.1016/j.jeurceramsoc.2006.05.085,2007,,FALSE
Mg-W-O,mp-608385,[36310],MgWO4,0.127928692,P2/c,y,?,,,,{},{},,,,,,,might be old refinement of mp-18875,N/A
Mg-W-O,mp-1202763,[201984],MgWO6,0.449585605,P2_1/c,?,?,,,,{},{},,,,,,,ICSD 201984 contain hydrogen,N/A
Mn-Ag-O,mp-540932,[35762],MnAg2O4,0.184890075,Pnma,n,n,,,,{},{},,,"Ag, AgMnO4",wet synthesis,10.1002/zaac.19835071207,1983,,TRUE
Mn-Ag-O,mp-31239,[414178],Mn3Ag4O8,0.017895582,R32,y,?,,,,{},{},,,,,10.1002/zaac.200400421,2004,high temperature phase of mp-704268,FALSE
Mn-Ag-O,mp-704268,[412570],Mn3Ag4O8,0.015892312,P3_121,y,y,873,0.14,O2,{},{},1,,"MnO2, AgO",,10.1002/1521-3749(200207)628:7<1525::AID-ZAAC1525>3.0.CO;2-%23,2002,,FALSE
Mn-Ag-O,mp-655140,[30200],MnAgO4,0.898451831,P2_1/c,n,?,,,,{},{},,,,,10.1107/S0567740868003699,1968,old refinement of mp-608357,FALSE
Mn-Ag-O,mp-608357,"[30931, 36072]",MnAgO4,0.168410827,P2_1/c,n,n,,,,{},{},,,"KMnO4, AgNO3",hydrothermal,10.1524/zkri.1984.169.14.295,1984,ICSD 30931 doi not working,FALSE
Mn-Al-O,mp-755882,[252228],MnAl2O4,0,Fd-3m,y,y,1273,0,vacuum,{},"{""step1"": {""cool rate"": [{""value"": ""15"", ""unit"": ""C/h""}], ""cool time"": [], ""cool medium"": [], ""cool type"": [], ""end temperature"": [""RT""], ""remark"": []}}",1,,"MnO, Al2O3",,10.1103/PhysRevB.79.134406,2008,,FALSE
Mn-As-O,mp-19409,[80351],MnAs2O6,0,P-31m,y,y,973,AP,,{},{},1,,"MnO, As2O5",,10.1006/jssc.1995.1361,1995,,FALSE
Mn-As-O,mp-19290,"[69003, 261143]",Mn2As2O7,0.004491948,C2/m,n,n,,,,{},{},,,HMnAsO4·H2O,decomposition,10.1016/0022-4596(90)90109-B,1990,,FALSE
Mn-As-O,mp-1199645,[411797],Mn2As2O9,0.406863594,P2_1/c,?,?,,,,{},{},,,,,,,ICSD 411797 contain hydrogen,N/A
Mn-As-O,mp-1189523,[190076],Mn3As2O14,0.297064387,P1,?,?,,,,{},{},,,,,,,ICSD 190076 contain hydrogen,N/A
Mn-As-O,mp-1198289,[411974],Mn5As4O20,0.291951784,C2/c,?,?,,,,{},{},,,,,,,ICSD 411974 contain hydrogen,N/A
Mn-As-O,mp-1204415,[15210],Mn5As2O12,0.102211452,P2_12_12_1,?,?,,,,{},{},,,,,,,ICSD 15210 contain hydrogen,N/A
Mn-As-O,mp-1205143,[202938],Mn5As2O16,0.341299047,P2_1/c,?,?,,,,{},{},,,,,,,ICSD 202938 contain hydrogen,N/A