system,mp_id,icsd_ids,composition,e_above_hull,Spacegroup Number,solid_state_synthesized_composition,solid_state_synthesized_structure,sss_highest_temperature(K),sss_pressure(GPa),sss_atmosphere,sss_mixing_condition,sss_cooling_condition,sss_heating_step,single_crystal,sss_precursor,other_synthesis_method,reference,reference_year,comment,google_translate
Ta-Cd-O,mp-5548,"[27123, 77061, 9715, 75605]",Ta2Cd2O7,0,Fd-3m,y,y,1273,,,{},{},1,,"CdO, Ta2O5",,10.1016/0038-1098(76)91425-3,1976,,FALSE
Ta-Co-O,mp-31517,"[166674, 166673, 203095, 247812]",Ta2CoO6,0,P4_2/mnm,y,y,1400,AP,,{},"{""step1"": {""cool rate"": [], ""cool time"": [], ""cool medium"": [], ""cool type"": [""slow cooling""], ""end temperature"": [""RT""], ""remark"": []}}",1,,"Co3O4, Ta2O5",,10.1016/j.jmmm.2012.04.020,2012,,FALSE
Ta-Cr-O,mp-31629,[51175],Ta2CrO6,0,P2_1/c,y,y,1323,0,vacuum,{},{},1,,"Cr2O3, Ta2O5",,10.1006/jssc.1998.7674,1998,,FALSE
Ta-Cr-O,mp-21512,"[9390, 15306]",Ta2CrO6,0.013384833,P4_2/mnm,y,?,,,,{},{},,,,,10.1016/0022-4596(72)90116-8,1972,old refinement of mp-31629,TRUE
Ta-Cu-O,mp-22010,[83367],Ta2CuO6,0.065047722,P4_2/mnm,y,y,1273,AP,,"{""step1"": {""grind method"": [""ball milling""], ""wet/dry"": [], ""liquid"": [""propanol""]}}",{},1,,"CuO, Ta2O5",,10.1515/znb-1996-1113,1996,,TRUE
Ta-Cu-O,mp-28752,"[72177, 247277]",Ta7Cu3O19,0.036638763,P6_3/m,y,y,1273,0,vacuum,{},{},1,,"Cu2O, Ta2O5, CsCl",,10.1016/j.jssc.2010.01.030,2010,excess Cu2O,FALSE
Ta-Fe-O,mp-31755,"[40337, 401264, 201754]",Ta2FeO6,0,P4_2/mnm,y,y,1373,,CO/CO2,{},{},1,,"Fe2O3, Ta2O5",,10.1016/0022-4596(86)90235-5,1986,,FALSE
Ta-In-O,mp-8979,[72569],TaInO4,0,P2/c,y,y,1373,AP,,{},{},1,,"Ga2O3, In2O3",,10.1016/0925-8388(93)90652-4,1993,,TRUE
Ta-Mn-O,mp-31909,"[251819, 86746, 88443]",Ta2Mn3O8,0.177195347,I4_1/a,y,y,1473,,Ar,{},{},2,,"Ta2O5, MnC2O4",,10.1039/A804938K,1998,,FALSE
Ta-Mn-O,mp-17993,[50943],Ta2Mn4O9,0,P-3c1,y,y,1473,,Ar,{},{},2,,"Ta2O5, MnC2O4",,10.1006/jssc.1997.7733,1998,,FALSE
Ta-Mn-O,mp-540716,[15857],Ta2MnO6,0,Pbcn,y,y,1473,,He,{},{},1,,"MnO, Ta2O5",,10.1016/j.jallcom.2020.155153,2020,"ICSD 15857 doi not working; other phase of tri-rutile and wolframite MnTa2O6, which can be synthesized via solid state synthesis",FALSE
Ta-Mn-O,mp-29747,[50944],Ta4Mn11O21,0.022412989,P-3c1,y,y,1473,,Ar,{},{},2,,"Ta2O5, MnC2O4",,10.1006/jssc.1997.7733,1998,inhomogeneous,FALSE
Ta-Mn-O,mp-31900,[15995],TaMn2O3,1.003393848,P6/mmm,y,y,1273,0,vacuum,{},{},1,,"Mn, MnO2, Ta",,10.1016/0001-6160(55)90004-3,1955,,FALSE
Ta-Ni-O,mp-32308,"[247807, 61198]",Ta2NiO6,0.317885826,P4_2/mnm,y,y,1600,AP,,{},"{""step1"": {""cool rate"": [], ""cool time"": [], ""cool medium"": [], ""cool type"": [""slow cooling""], ""end temperature"": [""RT""], ""remark"": []}}",1,,"NiO, Ta2O5",,10.1016/j.jmmm.2012.04.020,2012,,FALSE
Ta-Sb-O,mp-1205391,[25548],TaSbO4,0,Pnna,y,y,1270,0,vacuum,{},{},1,,"Sb2O3, Sb2O4, Ta2O5",,10.1107/S0567740874006534,1974,,FALSE
Ta-Sn-O,mp-3593,"[163818, 27119]",Ta2Sn2O7,0.077978254,Fd-3m,y,y,1173,0,vacuum,"{""step1"": {""grind method"": [""agate mortar""], ""wet/dry"": [], ""liquid"": []}}",{},1,,"SnO, Ta2O5",,10.2109/jcersj2.120.551,2012,ICSD 163818 not found,FALSE
Ta-Sn-O,mp-556489,[54078],Ta2SnO6,0,Cc,n,n,,,,{},{},,,"KTaO3, SnCl2",flux,10.1016/j.materresbull.2008.11.007,2009,,FALSE
Ta-Sn-O,mp-27553,[15206],Ta2SnO7,0.188954557,C2/c,n,n,,,,{},{},,,,natural mineral,pubs.geoscienceworld.org/msa/ammin/article/55/3-4_Part_1/367/540612/The-crystal-structure-of-SnTa2O7-thoreaulite-an,1970,,FALSE
Ta-Sn-O,mp-8074,"[247837, 27118]",TaSnO3,0.323235164,Pm-3m,?,?,,,,{},{},,,,,"Comptes Rendus Hebdomadaires des Seances de l'Academie des Sciences 240, 2340 (1955)",1955,uncertain phase percentage,FALSE
Ta-Te-O,mp-3180,"[202318, 202267]",Ta2Te2O9,0,P2_1/c,y,y,1013,,,{},{},1,,"TeO3, Ta2O5",,10.1016/0025-5408(87)90257-1,1987,,FALSE
Ta-V-O,mp-21860,"[28490, 23600, 166511]",Ta2VO6,0,P4_2/mnm,?,?,,,,{},{},,,,,"Revue Internationale des Hautes Tempratures et des Refractaires 8, 261 (1971)",1971,insufficient information: no synthesis information,TRUE
Ta-V-O,mp-17857,[73803],Ta9VO25,0,I-4,y,y,1373,AP,,{},{},1,,"V2O5, Ta2O5",,10.1016/S0167-577X(02)01215-6,2003,,FALSE
Ta-V-O,mp-18137,"[202762, 261431, 261430]",TaVO5,0,Pnma,y,y,1073,AP,,"{""step1"": {""grind method"": [""ball milling""], ""wet/dry"": [], ""liquid"": [""ethanol""]}}","{""step1"": {""cool rate"": [], ""cool time"": [], ""cool medium"": [], ""cool type"": [""furnace cool""], ""end temperature"": [""RT""], ""remark"": []}}",1,,"V2O5, Ta2O5",,10.1021/ic200003n,2011,excess V2O5,FALSE
Ta-V-O,mp-1202580,[261429],TaVO5,0.00239407,P2_1/c,y,y,,,,{},{},,,,,10.1021/ic200003n,2011,low temperature phase of mp-18137,FALSE
Ta-Zn-O,mp-28251,[46001],Ta2Zn3O8,0,C2/c,y,y,1373,,,"{""step1"": {""grind method"": [""wet mixing""], ""wet/dry"": [""wet""], ""liquid"": []}, ""step2"": {""grind method"": [""ball milling""], ""wet/dry"": [], ""liquid"": []}}",{},2,,"ZnO, Ta2O5",,10.1557/JMR.2000.0191,2011,,FALSE
Ta-Zn-O,mp-17765,[36289],Ta2ZnO6,0.006314081,Pbcn,y,y,1573,AP,,"{""step1"": {""grind method"": [""ball milling""], ""wet/dry"": [], ""liquid"": [""isopropanol""]}}",{},1,,"Ta2O5, ZnO",,10.1016/S0955-2219(02)00020-1,2002,,FALSE
Tb-Al-O,mp-14387,[33602],Tb3Al5O12,0,Ia-3d,y,y,1973,,"air,vacuum","{""step1"": {""grind method"": [""ball milling""], ""wet/dry"": [], ""liquid"": [""ethanol""]}}",{},2,,"Tb4O7, Al2O3, TEOS, PEG-400",,10.1016/j.optmat.2011.06.017,2011,"sintering aid: TEOS, dispersion aid: PEG-400",FALSE
Tb-Al-O,mp-1200490,[164882],Tb4Al2O9,0.008096439,P2_1/c,y,y,1873,0.00048,N2,"{""step1"": {""grind method"": [""ball milling""], ""wet/dry"": [], ""liquid"": [""hexane""]}}",{},1,,"Al2O3, AlN, Tb4O7",,10.1016/j.jallcom.2009.05.071,2009,,FALSE
Tb-Al-O,mp-4434,"[84422, 98302]",TbAlO3,0.009000094,Pnma,y,y,1473,AP,,{},{},1,,,,10.1016/S0304-8853(02)00421-3,2002,,FALSE
Tb-As-O,mp-3248,"[200230, 200231, 16330, 16329]",TbAsO4,0,I4_1/amd,n,n,,,,{},{},,,,flux,10.1107/S0567740879004210,1979,,FALSE
Tb-Bi-O,mp-1068954,[423916],Tb2BiO2,0,I4/mmm,y,y,1770,,,{},"{""step1"": {""cool rate"": [{""value"": ""50"", ""unit"": ""C/h""}], ""cool time"": [], ""cool medium"": [], ""cool type"": [], ""end temperature"": [""RT""], ""remark"": []}}",2,,"TbBi, Tb2O3",,10.1002/zaac.201100529,2012,,FALSE
Tb-Co-O,mp-19802,"[190946, 23657, 190947, 190948, 172046]",TbCoO3,0,Pnma,y,y,1473,AP,,{},{},1,,"Co2O3, Tb4O7",,10.1016/j.solidstatesciences.2013.12.001,2014,,FALSE
Tb-Cr-O,mp-756124,[251101],TbCrO3,0.157690214,Pnma,y,y,1673,AP,,"{""step1"": {""grind method"": [""ball milling""], ""wet/dry"": [], ""liquid"": [""acetone""]}}",{},2,,"Tb2O3, Cr2O3",,10.1016/j.jallcom.2017.11.186,2018,,FALSE
Tb-Cr-O,mp-19272,"[166175, 22312, 169874, 51904, 26983]",TbCrO4,0,I4_1/amd,y,y,853,,O2,{},{},3,,"Cr(NO3)3·9H2O, Tb(NO3)3·6H2O",,10.1103/PhysRevB.81.174419,2010,,FALSE
Tb-Fe-O,mp-19710,"[80547, 9233, 22320]",Tb3Fe5O12,0.017939203,Ia-3d,y,y,1663,AP,,{},{},2,,"Tb4O7, Fe2O3",,10.1109/TMAG.2013.2245111,2013,,FALSE
Tb-Fe-O,mp-3282,"[80549, 80548, 80550]",Tb3Fe5O12,0.024207921,R-3,y,y,,,,{},{},,,,,10.1016/0022-4596(90)90182-W,1990,low temperature phase of mp-19710,FALSE
Tb-Fe-O,mp-19853,"[252448, 22311, 27279, 84412, 98290, 189730]",TbFeO3,0.001045899,Pnma,y,y,1673,AP,,{},{},2,,"Tb4O7, Fe2O3",,10.1016/j.cap.2013.07.007,2013,,FALSE
Tb-Ga-O,mp-5965,"[20831, 84875, 184934]",Tb3Ga5O12,0,Ia-3d,y,y,1548,AP,,{},{},1,,"Ga2O3, Tb2O3",,10.1016/j.jmmm.2012.01.030,2012,,FALSE
Tb-Ga-O,mp-31112,[99494],Tb3GaO6,0,Cmc2_1,y,y,1673,AP,,{},"{""step1"": {""cool rate"": [], ""cool time"": [], ""cool medium"": [""air""], ""cool type"": [""quench""], ""end temperature"": [""RT""], ""remark"": []}}",3,,"Ga2O3, Tb2O3",,10.1016/j.jssc.2003.12.024,2004,,FALSE
Tb-Ge-O,mp-14649,[65138],Tb2Ge2O7,0,P4_12_12,y,y,1473,,,"{""step1"": {""grind method"": [""agate mortar""], ""wet/dry"": [], ""liquid"": []}}",{},3,,"GeO2, Tb2O3",,10.1134/S0036023619070052,2019,ICSD 65318 doi not working,FALSE
Tb-Mn-O,mp-18525,[84353],TbMn2O5,0,Pbam,y,y,1423,,O2,{},{},1,,"Tb2O3, MnO2",,10.1103/PhysRevB.71.172301,2004,,FALSE
Tb-Mn-O,mp-22055,"[252442, 92084, 15720, 157394, 92078]",TbMnO3,0.218191168,Pnma,y,y,1623,AP,,{},{},3,,"Tb4O7, MnCO3",,10.1016/j.jpcs.2015.05.002,2015,,FALSE
Tb-Mo-O,mp-3114,"[193882, 200858, 200857]",Tb2Mo3O12,0,Pba2,y,y,1273,AP,,"{""step1"": {""grind method"": [""agate mortar""], ""wet/dry"": [], ""liquid"": []}}",{},4,,"Tb4O7, MoO3",,10.1016/j.optmat.2013.12.008,2014,,FALSE
Tb-Mo-O,mp-1197851,"[200860, 200859, 200861]",Tb2Mo3O12,0.000149368,P-42_1m,y,y,,,,{},{},,,,,10.1063/1.439720,2008,high temperature phase of mp-3114,FALSE
Tb-Mo-O,mp-19200,"[159771, 159770, 159772, 159773]",Tb2Mo2O7,0,Fd-3m,y,y,1673,,CO/CO2,{},{},1,,"MoO2, Tb4O7",,10.1103/PhysRevB.81.224405,2010,,FALSE
Tb-Mo-O,mp-29945,[280784],Tb2Mo4O15,0,P2_1/c,n,n,,,,{},{},,,Tb2(H2O)12Mo8O27·6H2O,pyrolysis,10.1107/S1600536801018517,2001,,FALSE
Tb-Mo-O,mp-18340,[79808],Tb2MoO6,0,C2/c,y,y,1473,,,"{""step1"": {""grind method"": [""ball milling""], ""wet/dry"": [], ""liquid"": []}}","{""step1"": {""cool rate"": [{""value"": ""250"", ""unit"": ""C/h""}], ""cool time"": [], ""cool medium"": [], ""cool type"": [], ""end temperature"": [""RT""], ""remark"": []}}",1,,"Tb4O7, MoO3",,10.1021/cm00050a015,1995,,FALSE
Tb-Mo-O,mp-21950,[281033],Tb4Mo4O11,0.15951965,Pbam,y,y,1673,,Ar,{},"{""step1"": {""cool rate"": [{""value"": ""100"", ""unit"": ""C/h""}], ""cool time"": [], ""cool medium"": [], ""cool type"": [], ""end temperature"": [{""value"": ""1100"", ""unit"": ""C""}], ""remark"": []}, ""step2"": {""cool rate"": [], ""cool time"": [], ""cool medium"": [], ""cool type"": [""furnace cool""], ""end temperature"": [""RT""], ""remark"": []}}",1,,"Tb4O7, Mo, MoO3",,10.1021/ic011000i,2002,,FALSE
Tb-Mo-O,mp-1105460,[196164],Tb5Mo2O12,0.001631629,C2/m,n,n,,,,{},{},,,"MoO3, Mo, Tb2O3, CsCl, NaCl",flux,10.1021/acs.inorgchem.5b02132,2015,,FALSE
Tb-Nb-O,mp-12647,[109178],TbNbO4,0,C2/c,y,y,1573,,Ar,{},"{""step1"": {""cool rate"": [], ""cool time"": [], ""cool medium"": [], ""cool type"": [""slow cooling""], ""end temperature"": [""RT""], ""remark"": []}}",2,,"Nb2O5, Tb2O3",,10.1107/S0567740871005697,1971,might be an old refinement: 10.1039/C7CE02072D,FALSE
Tb-Os-O,mp-1191300,[187410],Tb3OsO7,0,Cmcm,y,y,1223,0,vacuum,"{""step1"": {""grind method"": [""agate mortar""], ""wet/dry"": [], ""liquid"": []}}",{},1,,"Tb4O7, OsO2, Tb2O3",,10.1016/j.jssc.2012.09.039,2013,,FALSE
Tb-Re-O,mp-31102,[99253],Tb3ReO7,0.05252837,Cmcm,y,y,1673,0,vacuum,"{""step1"": {""grind method"": [""agate mortar""], ""wet/dry"": [], ""liquid"": []}}",{},1,,"ReO2, Re, Tb4O7",,10.1016/j.jallcom.2003.11.067,2004,,FALSE
Tb-Rh-O,mp-5692,"[172352, 172358]",TbRhO3,0,Pnma,y,y,1573,0.0001,O2,"{""step1"": {""grind method"": [""agate mortar""], ""wet/dry"": [], ""liquid"": []}}",{},1,,"Rh2O3, Tb4O7",,10.1016/S0925-8388(02)00969-6,2003,,FALSE
Tb-Ru-O,mp-15161,[82305],Tb2Ru2O7,0.02143367,Fd-3m,y,y,1473,,,"{""step1"": {""grind method"": [""agate mortar""], ""wet/dry"": [], ""liquid"": []}}",{},4,,"Tb4O7, RuO2",,10.1006/jssc.1996.0337,1996,inhomogeneous,FALSE
Tb-Ru-O,mp-1191047,[192737],Tb3RuO7,0.026736028,Cmcm,y,y,1473,AP,,"{""step1"": {""grind method"": [""agate mortar""], ""wet/dry"": [], ""liquid"": []}}",{},1,,"Tb4O7, RuO2",,10.1016/j.jssc.2014.08.003,2014,inhomogeneous,FALSE
Tb-Sb-O,mp-1191378,[191962],Tb3SbO7,0,Cmcm,y,y,1773,AP,,"{""step1"": {""grind method"": [""pestle and mortar""], ""wet/dry"": [], ""liquid"": []}}",{},1,,"Tb4O7, Sb2O3",,10.1016/j.jssc.2013.05.001,2013,inhomogeneous,FALSE
Tb-Sb-O,mp-556920,[409978],Tb9Sb5O5,0,P4/n,y,y,1923,,,{},"{""step1"": {""cool rate"": [{""value"": ""20"", ""unit"": ""C/h""}], ""cool time"": [], ""cool medium"": [], ""cool type"": [], ""end temperature"": [""RT""], ""remark"": []}}",2,,"Sb2O3, Tb, Sb",,10.1524/ncrs.2009.0007,2009,ICSD 409978 doi might be wrong: paper did not mention the entry compound,FALSE
Tb-Sc-O,mp-31119,[99544],TbScO3,0.018401905,Pnma,y,y,1748,AP,,"{""step1"": {""grind method"": [""mixed""], ""wet/dry"": [], ""liquid"": [""acetone""]}}",{},2,,"Tb7O12, Sc2O3, C",,10.1016/j.jssc.2004.02.025,2004,graphie was added for reduction of Tb7O12 during calcination,FALSE
Tb-Se-O,mp-30313,[95791],Tb2Se2O7,0,P4_2/ncm,y,y,1123,0,vacuum,{},"{""step1"": {""cool rate"": [{""value"": ""6"", ""unit"": ""C/h""}], ""cool time"": [], ""cool medium"": [], ""cool type"": [], ""end temperature"": [{""value"": ""500"", ""unit"": ""C""}], ""remark"": []}, ""step2"": {""cool rate"": [], ""cool time"": [], ""cool medium"": [], ""cool type"": [""furnace cool""], ""end temperature"": [""RT""], ""remark"": []}}",1,,"Tb4O7, Tb, SeO2",,10.1002/1521-3749(200209)628:9/10<1941::AID-ZAAC1941>3.0.CO;2-B,2002,,FALSE
Tb-Sn-O,mp-4991,"[82959, 159786, 159790, 159789, 159791, 159788, 159787]",Tb2Sn2O7,0,Fd-3m,y,y,1673,AP,,{},{},1,,"SnO2, Tb4O7",,10.1143/JPSJ.71.1576,2002,,FALSE
Tb-Ta-O,mp-554593,[109187],TbTaO4,0.005188823,C2/c,y,y,,,,{},{},,,,,10.1016/j.jlumin.2013.02.016,2013,"other phase of mp-12932, which can be synthesized at higher temperature",FALSE
Tb-Ta-O,mp-12932,[415434],TbTaO4,0,P2/c,y,y,1473,AP,,"{""step1"": {""grind method"": [""mortar""], ""wet/dry"": [], ""liquid"": []}}",{},1,,"Tb4O7, Ta2O5",,10.1016/j.jlumin.2013.02.016,2013,,FALSE
Tb-Te-O,mp-31245,[413658],Tb2Te4O11,0,C2/c,y,y,1073,AP,,"{""step1"": {""grind method"": [""mixed""], ""wet/dry"": [], ""liquid"": [""ethanol""]}}",{},1,,"Tb4O7, TeO2",,10.1016/0022-4596(89)90103-5,1989,,FALSE
Tb-Te-O,mp-16036,[89564],Tb2TeO2,0,I4/mmm,?,?,1023,0,vacuum,{},{},1,,"TeO2, Tb",,10.1002/(SICI)1521-3749(199911)625:11<1833::AID-ZAAC1833>3.0.CO;2-8,1999,insufficient information: abstract suggests solid state reaction was attempted but only flux synthesis was mentioned in experimental section,TRUE
Tb-Ti-O,mp-4602,"[159782, 159785, 191618, 151747, 159781, 159783, 159784]",Tb2Ti2O7,0.019056512,Fd-3m,y,y,1623,AP,,{},{},1,,"Tb4O7, TiO2",,10.1103/PhysRevB.69.024416,2003,,FALSE
Tb-Ti-O,mp-752414,[195212],Tb2TiO5,0,Pnma,y,y,1823,AP,,"{""step1"": {""grind method"": [""ball milling""], ""wet/dry"": [], ""liquid"": []}}","{""step1"": {""cool rate"": [{""value"": ""300"", ""unit"": ""C/h""}], ""cool time"": [], ""cool medium"": [], ""cool type"": [], ""end temperature"": [""RT""], ""remark"": []}}",1,,"TiO2, Tb4O7",,10.1016/j.jssc.2015.03.003,2015,,FALSE
Tb-V-O,mp-554811,"[155481, 185835]",TbVO3,0.06177362,Pnma,y,y,1473,,CO2/H2,"{""step1"": {""grind method"": [""agate mortar""], ""wet/dry"": [], ""liquid"": [""ethanol""]}}","{""step1"": {""cool rate"": [], ""cool time"": [], ""cool medium"": [], ""cool type"": [""quench""], ""end temperature"": [""RT""], ""remark"": []}}",2,,"Tb2O3, V2O5",,10.1246/bcsj.58.948,1985,more synthesis detail in: 10.1246/bcsj.50.889,FALSE
Tb-V-O,mp-19121,"[88368, 78078, 15606, 9395, 88369]",TbVO4,0,I4_1/amd,y,y,1373,AP,,{},{},2,,"Tb2O3, V2O5",,10.1103/PhysRevB.84.224121,2011,,FALSE
Tc-Ag-O,mp-7206,[281321],TcAgO4,0,I4_1/a,n,n,,,,{},{},,,"NH4TcO4, AgNO3",precipitation,10.1021/acs.inorgchem.9b01257,2019,,FALSE
Tc-Bi-O,mp-554435,[260025],TcBi3O8,0,P2_13,y,y,723,,O2,"{""step1"": {""grind method"": [""mixed""], ""wet/dry"": [], ""liquid"": [""methanol""]}}",{},1,,"Bi2Tc2O7, Bi2O3",,10.1021/ic8003273,2008,,FALSE
Tc-Pb-O,mp-687205,[109078],TcPbO3,0.072886823,Fd-3m,y,y,1163,0,vacuum,{},"{""step1"": {""cool rate"": [], ""cool time"": [], ""cool medium"": [""water""], ""cool type"": [""quench""], ""end temperature"": [""RT""], ""remark"": []}}",2,,"TcO2, PbO",,10.1016/0022-1902(64)80152-4,1964,,FALSE
Te-As-O,mp-1196688,[425499],Te3As2O11,0,P-1,n,n,,,,{},{},,,(TeO)(HAsO4),decomposition,10.1002/zaac.201300339,2013,,FALSE
Te-Mo-O,mp-19453,"[200625, 188839, 188838, 73]",Te2MoO7,0,P2_1/c,y,y,773,,N2/O2,"{""step1"": {""grind method"": [""ball milling""], ""wet/dry"": [], ""liquid"": []}}",{},1,,"TeO2, MoO3",,10.1002/ejic.201300443,2013,,FALSE
Te-Mo-O,mp-27531,"[84704, 1081]",TeMo5O16,0.00770156,P2_1/c,y,y,973,0,vacuum,{},{},1,,"MoO3, TeO2, Te",,10.1107/S0567740877007936,1977,,TRUE
Te-Pb-O,mp-21922,"[200372, 409543]",Te3Pb2O8,0,Cmcm,?,?,,,,{},{},,,"PbO, TeO2, Pb(NO3)2, Pb(CH3COO)2",,10.1007/s10973-006-7740-x,2007,insufficient information: ambiguity of synthesis method,FALSE
Te-Pb-O,mp-1203659,[51417],Te5PbO11,0.010310354,C2/c,y,y,1003,AP,,{},{},2,,"PbO, TeO2",,10.1016/S0025-5408(01)00534-7,2001,inhomogeneous,FALSE
Te-Pb-O,mp-1105700,"[168000, 425090]",TePb2O5,0,C2/c,y,y,1023,AP,,{},{},1,,"PbO, TeO2",,10.1016/j.jssc.2012.12.007,2013,inhomogeneous,FALSE
Te-Pb-O,mp-624234,[407955],TePb2O5,0.000691704,Cc,y,?,,,,{},{},,,,,10.1016/j.jssc.2012.12.007,2013,old refinement of mp-1105700,FALSE
Te-Pb-O,mp-1201764,[425091],TePb5O8,0,P2_1/c,y,y,1023,AP,,{},{},1,,"PbO, TeO2",,10.1016/j.jssc.2012.12.007,2013,,FALSE
Te-Pb-O,mp-543039,"[16999, 240921]",TePbO3,0,C2/c,y,?,,,,{},{},,,,,10.1007/BF00569277,1978,alpha phase; other phase of mp-555021; insufficient information: there are 2 papers that have synthesized monoclinic PbTeO3 (one even refered to as alpha phase) but have different lattice parameters,FALSE
Te-Pb-O,mp-555021,[61343],TePbO3,0.002681072,P4_1,y,y,983,AP,,{},{},1,,"Te(OH)6, Pb(C2H3O2)2·3H2O",,10.1080/00945718708070212,1987,beta phase,FALSE
Te-Se-O,mp-29320,[201784],Te3SeO8,0.011541141,P-1,y,y,733,0,vacuum,{},"{""step1"": {""cool rate"": [], ""cool time"": [], ""cool medium"": [], ""cool type"": [""quench""], ""end temperature"": [""RT""], ""remark"": []}}",2,,"TeO3, SeO2",,10.1016/0022-4596(86)90168-4,1986,,FALSE
Th-As-O,mp-1195682,[238290],ThAs8O19,0,C2/c,y,y,1473,3,,{},"{""step1"": {""cool rate"": [{""value"": ""14"", ""unit"": ""C/h""}], ""cool time"": [], ""cool medium"": [], ""cool type"": [], ""end temperature"": [""RT""], ""remark"": []}}",1,,"Th(NO3)4·5H2O, As2O3, CsNO3",,10.1021/ic5013704,2014,CsNO3 as oxidizer,FALSE
Th-Ge-O,mp-9756,"[202081, 156944]",ThGeO4,0.023508876,I4_1/a,y,y,1273,AP,,{},{},1,,"ThO2, GeO2",,10.1016/j.jallcom.2006.08.025,2007,,FALSE
Th-Ge-O,mp-4790,"[202082, 156945]",ThGeO4,0,I4_1/amd,y,y,,,,{},{},,,,,10.1016/j.jallcom.2006.08.025,2007,high temperature phase of mp-9756,FALSE
Th-Mo-O,mp-4669,"[37236, 23421]",ThMo2O8,0,Pbca,y,y,870,AP,,{},{},2,,"MoO3, Th(NO3)4·5H2O",,10.1002/chem.201503839,2015,"high temperature phase of hexagonal ThMo2O8, which can be synthesized via solid state synthesis",FALSE
Th-Mo-O,mp-560756,[65705],ThMo2O8,0.001888497,P-3,y,n,,,,{},{},,,"ThO2, MoO3",from melt,10.1107/S0108270189003112,1989,"other phase of hexagonal ThMo2O8, which can be synthesized via solid state synthesis",FALSE
Th-Mo-O,mp-1202366,[192721],ThMo2O11,0.547077128,P2_1/c,?,?,,,,{},{},,,,,,,ICSD 192721 contain hydrogen,N/A
Th-Mo-O,mp-1195429,[193551],ThMo2O9,0.196624127,P2_1/c,?,?,,,,{},{},,,,,,,ICSD 193551 contain hydrogen,N/A
Th-Se-O,mp-1195373,[251711],ThSe4O10,0,Pbca,n,n,,,,{},{},,,"Th(NO3)4·5H2O, SeO2, H3BO3, H2O",low temperature flux,10.1021/acs.inorgchem.5b00133,2015,,FALSE
Th-Se-O,mp-1195659,[251714],ThSe2O6,0,P2_1/c,n,n,,,,{},{},,,"Th(NO3)4·5H2O, SeO2, NaNO3, H2O",hydrothermal,10.1021/acs.inorgchem.5b00133,2015,,FALSE
Th-Se-O,mp-1195570,[251713],ThSe2O6,0.010784968,Pna2_1,n,n,,,,{},{},,,,,10.1021/acs.inorgchem.5b00133,2015,other phase of mp-1195659,FALSE
Th-Se-O,mp-1195308,[251712],Th3Se3O16,0.040211125,I4/m,?,?,,,,{},{},,,,,10.1021/acs.inorgchem.5b00133,2015,ICSD 251712 contain hydrogen,FALSE
Th-Se-O,mp-560863,[415808],ThSe2O7,0,P2_1/c,n,n,,,,{},{},1,,"Cs2CO3, Th(NO3)4·xH2O, H2SeO4",hydrothermal,10.1016/j.jssc.2006.01.017,2006,,FALSE
Th-Se-O,mp-7950,[26654],ThSeO,0,P4/nmm,y,y,1223,0,vacuum,{},{},1,,"ThO2, ThSe2",,10.1039/JR9520002555,1952,,FALSE
Th-Ta-O,mp-29368,[203132],Th2Ta2O9,0.033535537,C222_1,y,y,1823,,,{},{},1,,"ThO2, Ta2O5",,10.1016/0022-5088(89)90408-6,1989,,TRUE
Th-Ta-O,mp-9275,[78983],Th2Ta6O19,0.023249993,P6_3/mcm,n,n,,,,{},{},,,"ThO2, Ta2O5, Cl2",chemical transport reaction,10.1002/zaac.19966220111,1996,,TRUE
Th-Ta-O,mp-28611,[67393],ThTa2O7,0.002602534,C2/m,n,n,,,,{},{},,,"NH4Cl, ThO2, Ta2O5",chemical transport reaction,10.1016/0022-5088(90)90062-O,1990,,TRUE