system,mp_id,icsd_ids,composition,e_above_hull,Spacegroup Number,solid_state_synthesized_composition,solid_state_synthesized_structure,sss_highest_temperature(K),sss_pressure(GPa),sss_atmosphere,sss_mixing_condition,sss_cooling_condition,sss_heating_step,single_crystal,sss_precursor,other_synthesis_method,reference,reference_year,comment,google_translate
Cu-Mo-O,mp-560888,[39439],CuMoO4,0.036378373,P-1,y,y,,,,{},{},,,,,10.1006/jssc.1997.7413,1997,CuMoO4-III phase; might be high temperature/pressure phase of mp-541991,FALSE
Cu-Mo-O,mp-541991,"[66819, 411384, 50537, 22276]",CuMoO4,0.037500807,P-1,y,y,973,,,"{""step1"": {""grind method"": [""agate mortar""], ""wet/dry"": [], ""liquid"": [""acetone""]}}","{""step1"": {""cool rate"": [{""value"": ""120"", ""unit"": ""C/h""}], ""cool time"": [], ""cool medium"": [], ""cool type"": [], ""end temperature"": [""RT""], ""remark"": []}}",1,,"CuO, MoO3",,10.1016/S0022-3697(96)00108-4,1997,alpha phase,FALSE
Cu-Mo-O,mp-619545,"[66818, 50538, 84919]",CuMoO4,0.019889551,P-1,y,y,,,,{},{},,,,,10.1016/S0022-3697(96)00108-4,1997,low temperature phase of mp-541991; gamma phase; high pressure phase of mp-541991,FALSE
Cu-Pb-O,mp-29396,[400657],Cu2PbO2,0,C2/c,y,y,910,,Ar,"{""step1"": {""grind method"": [""mortar""], ""wet/dry"": [], ""liquid"": [""ethanol""]}}",{},1,,"Cu2O, PbO",,10.4028/www.scientific.net/MSF.494.67,2005,,FALSE
Cu-Pb-O,mp-22037,"[27585, 280597]",Cu6PbO8,0.254870485,Fm-3m,n,n,,,,{},{},,,,natural mineral,10.1107/S0108270183007702,1983,ICSD 280597 not found,FALSE
Cu-Pb-O,mp-559633,[280596],Cu6PbO8,0,Fm-3m,n,?,,,,{},{},,,,,10.1107/S0108768199011015,2000,modelling of mp-22037,FALSE
Cu-Re-O,mp-1181782,[416510],CuReO4,0,I4_1cd,y,y,1073,0,vacuum,"{""step1"": {""grind method"": [""agate mortar""], ""wet/dry"": [], ""liquid"": [""acetone""]}}",{},1,,"CuO, ReO3",,10.1016/j.jssc.2006.03.039,2006,,FALSE
Cu-Rh-O,mp-4409,"[88962, 23486]",CuRh2O4,0.024294879,Fd-3m,y,y,,,,{},{},,,,,10.1016/S0025-5408(98)00201-3,1999,high temperature phase of mp-1104542,FALSE
Cu-Rh-O,mp-1104542,"[59267, 88961]",CuRh2O4,0.024695471,I4_1/amd,y,y,1373,,O2,{},{},1,,"Rh2O3, CuO",,10.1107/S0108270197000486,1997,,FALSE
Cu-Rh-O,mp-14116,[29214],CuRhO2,0,R-3m,y,y,1250,0,vacuum,{},{},1,,"Cu2O, Rh2O3",,10.1007/BF02745598,1999,,FALSE
Cu-Sb-O,mp-1193545,[190731],CuSb2O4,0.098601702,P4_2bc,n,n,,,,{},{},,,"CuCO3.Cu(OH)2, NH3, H2O, Sb2O3",reflux,10.1007/s10853-014-8063-0,2014,,FALSE
Cu-Sb-O,mp-554658,[628623],CuSb2O6,0.00440082,Pnnm,y,y,1273,AP,,{},{},1,,"CuO, Sb2O3",,10.1016/0022-4596(91)90062-M,1991,beta phase,FALSE
Cu-Sb-O,mp-5831,"[84789, 30410]",CuSb2O6,0,P4_2/mnm,y,y,,,,{},{},,,,,10.1006/jssc.1997.7374,1997,alpha phase; high temperature phase of mp-554658,FALSE
Cu-Se-O,mp-578931,[60652],Cu2SeO4,0.014324768,P2_13,y,y,873,0,vacuum,"{""step1"": {""grind method"": [""pestle and mortar""], ""wet/dry"": [], ""liquid"": []}}","{""step1"": {""cool rate"": [], ""cool time"": [], ""cool medium"": [], ""cool type"": [""quench""], ""end temperature"": [""RT""], ""remark"": []}}",1,,"CuO, SeO2",,10.1103/PhysRevB.78.094416,2008,,FALSE
Cu-Se-O,mp-560561,[60653],Cu2SeO4,0.026851492,P2_1/c,y,y,,,,{},{},,,,,10.1103/PhysRevB.102.214107,2020,high pressure phase of mp-578931,FALSE
Cu-Se-O,mp-541147,[60655],Cu4Se3O10,0.020592548,P-1,n,n,,,,{},{},,,,,10.1007/BF00811258,1985,other phase of mp-1204253,FALSE
Cu-Se-O,mp-1204253,[60654],Cu4Se3O10,0,P2_1/c,n,n,,,,{},{},,,"SeO2, CuO, Cu(OH)2, H2O",hydrothermal,10.1007/BF00811258,1985,,TRUE
Cu-Se-O,mp-3199,"[245059, 603]",CuSe2O5,0,C2/c,y,y,723,AP,,{},"{""step1"": {""cool rate"": [], ""cool time"": [], ""cool medium"": [], ""cool type"": [""slow cooling""], ""end temperature"": [""RT""], ""remark"": []}}",1,,"SeO2, CuO",,10.1107/S0021889876011540,1976,,TRUE
Cu-Se-O,mp-554440,[29507],CuSeO3,0.029887683,P2_1/c,y,n,,,,{},{},,,,hydrothermal,10.1524/zkri.1986.175.1-2.61,1986,other phase of mp-22414,FALSE
Cu-Se-O,mp-22414,"[97747, 498, 51847]",CuSeO3,0.062143775,Pnma,y,y,1273,6,,{},{},1,,"SeO2, CuO",,10.1088/0953-8984/15/12/312,2003,,FALSE
Cu-Se-O,mp-22688,"[29506, 61342]",CuSeO3,0.015094749,Pbca,y,n,,,,{},{},,,,hydrothermal,10.1524/zkri.1986.175.1-2.61,1986,other phase of mp-22414,FALSE
Cu-Se-O,mp-560049,[29508],CuSeO3,0.008905307,P-1,y,n,,,,{},{},,,,hydrothermal,10.1524/zkri.1986.175.1-2.61,1986,other phase of mp-22414,FALSE
Cu-Se-O,mp-554109,[109073],CuSeO4,0.00269612,Cmcm,n,n,,,,{},{},,,,,10.1524/zkri.1964.120.4-5.317,1964,high temperature/pressure phase of mp-554040,FALSE
Cu-Se-O,mp-554040,[109069],CuSeO4,0,Pnma,n,n,,,,{},{},,,CuSeO4·xH2O,decomposition,10.1524/zkri.1964.120.4-5.317,1964,,FALSE
Cu-Sn-O,mp-1202466,[194],CuSnO6,0.607000929,P4_2/nnm,?,?,,,,{},{},,,,,,,ICSD 194 contain hydrogen,N/A
Cu-Te-O,mp-17598,[50704],Cu2Te3O8,0.047046684,C2/c,n,n,,,,{},{},,,"CuO, Te(OH)6, NaCl",hydrothermal,10.1006/jssc.1998.8101,1999,,FALSE
Cu-Te-O,mp-21861,"[5389, 189131, 26990, 1529]",Cu3TeO6,0.010741122,Ia-3,y,y,1023,AP,,"{""step1"": {""grind method"": [""ball milling""], ""wet/dry"": [], ""liquid"": [""ethanol""]}}",{},2,,"CuO, TeO2",,10.1021/am501742z,2014,,FALSE
Cu-Te-O,mp-1199337,[82481],Cu3TeO8,0.237413235,P2_1/c,?,?,,,,{},{},,,,,,,ICSD 82481 contain hydrogen,N/A
Cu-Te-O,mp-27548,[2542],CuTe2O5,0.027264341,P2_1/c,y,y,873,AP,,{},"{""step1"": {""cool rate"": [{""value"": ""40"", ""unit"": ""C/min""}], ""cool time"": [], ""cool medium"": [], ""cool type"": [], ""end temperature"": [""RT""], ""remark"": []}}",1,,"CuO, TeO2",,10.1016/j.jallcom.2019.03.211,2019,,FALSE
Cu-Te-O,mp-558696,[202451],CuTeO3,0.035197857,P2_1/c,y,n,,,,{},{},,,,hydrothermal,10.1016/0022-4596(87)90236-2,1987,CuTeO3-II; other phase of mp-4320,FALSE
Cu-Te-O,mp-20977,[29338],CuTeO3,0.072243905,Pnma,y,y,,,,{},{},,,,,"Revue de Chimie Minerale 13, 162 (1976)",1976,high temperature/pressure phase of mp-4320,FALSE
Cu-Te-O,mp-4320,"[15023, 14168]",CuTeO3,0.044627607,Pnma,y,y,693,AP,,{},{},1,,"CuO, TeO2",,10.1007/BF00730736,1988,,FALSE
Cu-Te-O,mp-22420,"[1672, 1671]",CuTeO4,0,P2_1/c,n,n,,,,{},{},,,"CuSO4, Te(OH)6",hydrothermal,10.1107/S0567740878005889,1978,,FALSE
Cu-W-O,mp-622026,[202669],Cu2WO4,0.080711369,P1,y,y,,0,vacuum,{},{},,,"Cu, CuO, WO3",,10.3891/acta.chem.scand.41a-0152,1987,,FALSE
Cu-W-O,mp-560273,[15001],Cu3WO6,0.081898483,Pa-3,y,y,1073,0,vacuum,{},{},1,,"CuO, WO3",,10.3891/acta.chem.scand.23-0221,1969,,FALSE
Cu-W-O,mp-1103309,"[182751, 169005]",CuWO4,0.101044792,P2/c,y,y,,,,{},{},,,,,10.1021/cm201592h,2011,high pressure phase of mp-22773,FALSE
Cu-W-O,mp-22773,"[84558, 182750, 163954, 69759, 182753, 16009, 24339, 4189, 182752]",CuWO4,0.084266296,P-1,y,y,1073,0,vacuum,{},{},1,,"CuO, WO3",,10.1107/S0567740870003515,1970,inhomogeneous,FALSE
Dy-Al-O,mp-756630,[188422],DyAlO3,0.012823483,Pnma,y,y,1273,AP,,"{""step1"": {""grind method"": [""agate mortar""], ""wet/dry"": [], ""liquid"": []}}",{},2,,"Dy2O3, Al(NO3)3·9H2O",,10.1007/s10853-013-7540-1,2013,,FALSE
Dy-As-O,mp-5632,"[16513, 16514, 200229, 200228, 16512]",DyAsO4,0,I4_1/amd,n,n,,,,{},{},,,,flux,10.1088/0022-3719/4/18/028,1971,,FALSE
Dy-Bi-O,mp-1069561,[423915],Dy2BiO2,0,I4/mmm,y,y,1770,,,{},"{""step1"": {""cool rate"": [{""value"": ""50"", ""unit"": ""C/h""}], ""cool time"": [], ""cool medium"": [], ""cool type"": [], ""end temperature"": [""RT""], ""remark"": []}}",2,,"DyBi, Dy2O3",,10.1002/zaac.201100529,2012,,FALSE
Dy-Co-O,mp-22137,"[190951, 190949, 172047, 190950, 23658]",DyCoO3,0.005895935,Pnma,y,y,1473,AP,,{},{},1,,"Dy2O3, Co2O3",,10.1016/j.solidstatesciences.2013.12.001,2014,,FALSE
Dy-Cr-O,mp-19381,"[28248, 251079, 16506, 251082, 16505, 16507]",DyCrO3,0.163332822,Pnma,y,y,1500,AP,,{},"{""step1"": {""cool rate"": [{""value"": ""151"", ""unit"": ""C/h""}], ""cool time"": [], ""cool medium"": [], ""cool type"": [], ""end temperature"": [""RT""], ""remark"": []}}",1,,"Dy2O3, Cr2O3",,10.1007/BF00194090,1995,,FALSE
Dy-Cr-O,mp-18754,"[167718, 167716, 93788, 26984]",DyCrO4,0,I4_1/amd,y,y,773,,O2,{},{},4,,"Dy(NO3)3·H2O, Cr(NO3)3·H2O",,10.1016/j.jmmm.2010.01.006,2014,some heating steps were from this previous paper: 10.1016/S0022-4596(02)00203-7,FALSE
Dy-Fe-O,mp-21974,[23856],Dy3Fe5O12,0.021675076,Ia-3d,y,y,1523,AP,,"{""step1"": {""grind method"": [""agate mortar""], ""wet/dry"": [], ""liquid"": []}}",{},3,,"Dy2O3, Fe2O3",,10.1007/s11664-019-07675-9,2019,,FALSE
Dy-Fe-O,mp-504491,[9639],Dy6Fe16O,0.781775941,Im-3m,n,n,,,,{},{},,,DyxFey,oxidation,10.1016/0022-5088(76)90259-9,1976,,FALSE
Dy-Fe-O,mp-22283,"[280091, 27280, 189731]",DyFeO3,0.163034944,Pnma,y,y,1673,AP,,{},{},1,,"Dy2O3, Fe2O3",,10.1209/0295-5075/101/17001,2013,,FALSE
Dy-Ga-O,mp-15576,[409391],Dy3Ga5O12,0,Ia-3d,y,y,,,,{},{},,,,,10.1088/1361-648X/aa810e,2017,the reference paper synthesized Gd3Ga5O12 via solid state synthesis: 10.1088/0953-8984/26/11/116001,FALSE
Dy-Ga-O,mp-31113,[99495],Dy3GaO6,0.000954234,Cmc2_1,y,y,1473,AP,,{},"{""step1"": {""cool rate"": [], ""cool time"": [], ""cool medium"": [], ""cool type"": [""quench""], ""end temperature"": [""RT""], ""remark"": []}}",3,,"Dy2O3, Ga2O3",,10.1016/j.jssc.2003.12.024,2004,,FALSE
Dy-Ga-O,mp-755612,[429061],DyGaO3,0.04819394,Pnma,y,y,1623,8.5,,{},"{""step1"": {""cool rate"": [], ""cool time"": [{""value"": ""25"", ""unit"": ""min""}], ""cool medium"": [], ""cool type"": [], ""end temperature"": [{""value"": ""650"", ""unit"": ""C""}], ""remark"": []}, ""step2"": {""cool rate"": [], ""cool time"": [], ""cool medium"": [], ""cool type"": [""furnace cool""], ""end temperature"": [""RT""], ""remark"": []}}",1,,"Dy2O3, Ga2O3",,10.1515/znb-2015-0015,2015,,FALSE
Dy-Ge-O,mp-28351,[61373],Dy2GeO5,0,C2/c,y,y,1773,AP,,"{""step1"": {""grind method"": [""ball milling""], ""wet/dry"": [], ""liquid"": [""acetone""]}}",{},2,,"Dy2O3, GeO2",,10.1016/0022-5088(85)90349-2,1985,,FALSE
Dy-Ge-O,mp-1191600,[62901],Dy3GeO8,0.18797012,P2_1/m,?,?,,,,{},{},,,,,,,ICSD 62901 contain hydrogen,N/A
Dy-Hf-O,mp-3611,"[162004, 245138]",Dy2Hf2O7,0.000688074,Fd-3m,y,y,1973,AP,,{},"{""step1"": {""cool rate"": [], ""cool time"": [], ""cool medium"": [], ""cool type"": [""slow cooling""], ""end temperature"": [""RT""], ""remark"": []}}",4,,"Dy2O3, HfO2",,10.1016/j.jssc.2006.03.036,2006,,FALSE
Dy-Mn-O,mp-18601,[18308],DyMn2O5,0,Pbam,y,y,1473,AP,,{},"{""step1"": {""cool rate"": [{""value"": ""100"", ""unit"": ""C/h""}], ""cool time"": [], ""cool medium"": [], ""cool type"": [], ""end temperature"": [""RT""], ""remark"": []}}",1,,"Dy2O3, Mn2O3",,10.1063/1.4891979,2014,,FALSE
Dy-Mn-O,mp-542479,"[191974, 261886, 99785]",DyMnO3,0,P6_3cm,y,y,,,,{},{},,,"Dy2O3, MnO2",,10.1016/j.jssc.2014.05.017,2014,other phase of mp-22103,FALSE
Dy-Mn-O,mp-22103,"[162205, 157396, 91711]",DyMnO3,0.022302145,Pnma,y,y,1573,AP,,{},"{""step1"": {""cool rate"": [], ""cool time"": [], ""cool medium"": [], ""cool type"": [""furnace cool""], ""end temperature"": [""RT""], ""remark"": []}}",1,,"Dy2O3, MnO2",,10.1016/j.jssc.2004.12.006,2005,,FALSE
Dy-Mo-O,mp-1190424,[291026],Dy2Mo2O7,0.086884749,Fd-3m,y,y,1673,,Ar,{},{},1,,"Dy2O3, MoO2",,10.1016/j.matlet.2017.04.007,2017,,FALSE
Dy-Mo-O,mp-17822,[99570],Dy2MoO6,0,C2/c,y,y,1423,AP,,{},{},1,,"Dy2O3, MoO3",,10.1016/j.jssc.2004.03.046,2004,,FALSE
Dy-Mo-O,mp-16390,[281034],Dy4Mo4O11,0.169740935,Pbam,y,y,1673,,,{},"{""step1"": {""cool rate"": [{""value"": ""100"", ""unit"": ""C/h""}], ""cool time"": [], ""cool medium"": [], ""cool type"": [], ""end temperature"": [{""value"": ""1100"", ""unit"": ""C""}], ""remark"": []}, ""step2"": {""cool rate"": [], ""cool time"": [], ""cool medium"": [], ""cool type"": [""furnace cool""], ""end temperature"": [""RT""], ""remark"": []}}",1,,"Dy2O3, Mo, MoO3",,10.1021/ic011000i,2002,,FALSE
Dy-Mo-O,mp-1105361,[196165],Dy5Mo2O12,0.060758892,C2/m,n,n,,,,{},{},,,,flux,10.1021/acs.inorgchem.5b02132,2015,,FALSE
Dy-Nb-O,mp-1095234,"[430877, 430878, 430874, 430882, 430871, 430883, 430880, 239200, 430870, 430879, 430881, 239198, 430872, 430876, 430869, 239197, 430873, 239199, 430868, 430875, 109179]",DyNbO4,0.001640903,I4_1/a,y,y,,,,{},{},,,,,10.1111/jace.13095,2014,high temperature phase of mp-556639,FALSE
Dy-Nb-O,mp-556639,"[430867, 430871, 430870, 430872, 430869, 430873, 430868, 109179]",DyNbO4,0,C2/c,y,y,1673,AP,,{},{},1,,"Dy2O3, Nb2O5",,10.1134/S0036023620050186,2020,,FALSE
Dy-Nb-O,mp-1095339,"[239198, 239197]",DyNbO4,0.34302293,I4_1/a,y,?,,,,{},{},,,,,10.1111/jace.13095,2014,other refinement of mp-1095234,FALSE
Dy-Ni-O,mp-19265,"[162114, 162116, 87803, 162115]",DyNiO3,0,Pnma,n,n,,,,{},{},,,,,10.1039/B808485H,2008,high temperature phase of monoclinic DyNiO3,FALSE
Dy-Re-O,mp-1201741,[14046],DyRe3O16,0.406918528,Pna2_1,?,?,,,,{},{},,,,,,,ICSD 14046 contain hydrogen,N/A
Dy-Ru-O,mp-14968,[78151],Dy2Ru2O7,0.027085605,Fd-3m,y,y,1473,0,vacuum,{},{},2,,"RuO2, Dy2O3",,10.1006/jssc.1994.1116,1994,,FALSE
Dy-Sb-O,mp-1103799,[425141],Dy3SbO3,0.033277114,C2/m,y,y,1823,0,vacuum,{},"{""step1"": {""cool rate"": [], ""cool time"": [{""value"": ""1"", ""unit"": ""hour""}], ""cool medium"": [], ""cool type"": [], ""end temperature"": [""RT""], ""remark"": []}}",1,,"DySb, Dy2O3",,10.1021/ic302292w,2013,,FALSE
Dy-Sb-O,mp-556015,[241208],Dy9Sb5O5,0,P4/n,y,y,1920,,Ar,{},"{""step1"": {""cool rate"": [{""value"": ""50"", ""unit"": ""C/h""}], ""cool time"": [], ""cool medium"": [], ""cool type"": [], ""end temperature"": [""RT""], ""remark"": []}}",2,,"DySb, Dy2O3",,10.1107/S0108768107051282,2007,,FALSE
Dy-Sc-O,mp-31120,[99545],DyScO3,0.025832948,Pnma,y,y,1748,AP,,"{""step1"": {""grind method"": [""agate mortar""], ""wet/dry"": [], ""liquid"": [""acetone""]}}",{},2,,,,10.1016/j.jssc.2004.02.025,2004,,FALSE
Dy-Sn-O,mp-20845,"[162368, 82960]",Dy2Sn2O7,0,Fd-3m,y,y,1673,AP,,{},{},1,,"Dy2O3, SnO2",,10.1143/JPSJ.71.1576,2002,ICSD 162368 not found,FALSE
Dy-Ta-O,mp-755652,[191963],Dy3TaO7,0,C222_1,y,y,1873,AP,,"{""step1"": {""grind method"": [""agate mortar""], ""wet/dry"": [], ""liquid"": [""acetone""]}}",{},2,,"Dy2O3, Ta2O5",,10.1016/j.jssc.2014.04.029,2014,,FALSE
Dy-Ta-O,mp-15492,[203232],DyTa7O19,0.008608376,P-6c2,?,?,,,,{},{},,,,,10.1070/RC1977v046n03ABEH002128,1977,based on reference 41; translation issue: russian,FALSE
Dy-Ta-O,mp-557914,[109188],DyTaO4,0.004989489,C2/c,y,y,,,,{},{},,,,,10.1590/S1516-14392013005000189,2014,high temperature phase of mp-7703,FALSE
Dy-Ta-O,mp-7703,"[415435, 20263]",DyTaO4,0,P2/c,y,y,1573,AP,,"{""step1"": {""grind method"": [""pestle and mortar""], ""wet/dry"": [], ""liquid"": []}}",{},1,,"Dy2O3, Ta2O5",,10.1016/j.jallcom.2016.10.077,2017,,FALSE
Dy-Tc-O,mp-558960,[109080],Dy2Tc2O7,0.103201275,Fd-3m,y,y,1503,0,vacuum,{},"{""step1"": {""cool rate"": [], ""cool time"": [], ""cool medium"": [""water""], ""cool type"": [""quench""], ""end temperature"": [""RT""], ""remark"": []}}",2,,"Dy2O3, TcO2",,10.1016/0022-1902(64)80152-4,1964,inhomogeneous,FALSE
Dy-Te-O,mp-558224,[420079],Dy2Te3O9,0,P2_1/c,n,n,,,,{},{},,,"Dy2O3, TeO2, CsCl",flux,10.1002/zaac.200900030,2009,,TRUE
Dy-Te-O,mp-510342,[413659],Dy2Te4O11,0.004623619,C2/c,n,n,,,,{},{},,,"Dy2O3, TeO2, CsCl",flux,10.1515/znb-2004-0802,2004,,TRUE
Dy-Te-O,mp-555940,[413664],Dy2Te5O13,0,P-1,n,n,,,,{},{},,,"Dy2O3, TeO2, CsCl",flux,10.1515/znb-2005-0704,2005,,TRUE
Dy-Te-O,mp-16037,[89565],Dy2TeO2,0,I4/mmm,n,n,,,,{},{},,,"Dy2O3, TeO2, CsCl",flux,10.1002/(SICI)1521-3749(199911)625:11<1833::AID-ZAAC1833>3.0.CO;2-8,1999,,TRUE
Dy-Ti-O,mp-34322,"[191617, 188553]",Dy2Ti2O7,0.018292832,Fd-3m,y,y,1473,AP,,{},"{""step1"": {""cool rate"": [{""value"": ""120"", ""unit"": ""C/h""}], ""cool time"": [], ""cool medium"": [], ""cool type"": [], ""end temperature"": [""RT""], ""remark"": []}}",2,,"Dy2O3,TiO2",,10.1016/j.jallcom.2013.03.279,2013,,FALSE
Dy-Ti-O,mp-770816,[195213],Dy2TiO5,0,Pnma,y,y,1823,AP,,{},"{""step1"": {""cool rate"": [{""value"": ""300"", ""unit"": ""C/h""}], ""cool time"": [], ""cool medium"": [], ""cool type"": [], ""end temperature"": [""RT""], ""remark"": []}}",1,,"TiO2, Dy2O3",,10.1016/j.jssc.2015.03.003,2015,,FALSE
Dy-V-O,mp-642823,"[160863, 160864]",Dy2V2O7,0.139007518,Fd-3m,y,y,1473,5,,{},"{""step1"": {""cool rate"": [{""value"": ""30"", ""unit"": ""C/s""}], ""cool time"": [], ""cool medium"": [], ""cool type"": [""quench""], ""end temperature"": [""RT""], ""remark"": []}}",1,,"Dy2O3, V2O3, V2O5",,10.1021/cg800010g,2008,,FALSE
Dy-V-O,mp-1200746,[262404],Dy2VO5,0.032444639,P2_1/c,n,n,,,,{},{},,,"DyVO4, Rb2CO3, K2CO3",hydrothermal,10.1021/ic2024132,2012,,FALSE
Dy-V-O,mp-22789,[40392],DyVO3,0.062333271,Pnma,y,y,1373,0,vacuum,{},"{""step1"": {""cool rate"": [{""value"": ""50"", ""unit"": ""C/h""}], ""cool time"": [], ""cool medium"": [], ""cool type"": [], ""end temperature"": [""RT""], ""remark"": []}}",2,,"Dy2O3, V2O3",,10.1016/j.jallcom.2013.01.075,2013,,FALSE
Dy-V-O,mp-1095571,"[247717, 247716]",DyVO4,0.036961027,I4_1/a,y,y,,,,{},{},,,,,10.12693/APHYSPOLA.121.920,2012,modelling of high pressure phase of mp-18784,FALSE
Dy-V-O,mp-18784,"[37365, 152693, 26441, 247715, 15605, 9396, 247714, 247713, 81704]",DyVO4,0,I4_1/amd,y,y,1323,AP,,{},{},1,,"Dy2O3, V2O5",,10.1016/j.physb.2014.03.019,2014,,FALSE
Dy-W-O,mp-30960,[98102],Dy2W3O12,0.037544087,C2/c,y,y,1373,AP,,"{""step1"": {""grind method"": [""mortar""], ""wet/dry"": [], ""liquid"": []}}","{""step1"": {""cool rate"": [], ""cool time"": [], ""cool medium"": [], ""cool type"": [""slow cooling""], ""end temperature"": [""RT""], ""remark"": []}}",2,,"Dy2O3, WO3",,10.1039/C6RA21136D,2016,,FALSE
Dy-W-O,mp-770416,[430462],Dy2WO6,0.001566151,Pbca,y,y,1373,AP,,{},{},4,,"Dy2O3, WO3",,10.12693/APhysPolA.119.708,2011,,FALSE
Er-Al-O,mp-3384,"[170147, 280606, 170146, 62615]",Er3Al5O12,0,Ia-3d,y,y,1873,AP,,{},{},2,,"Er2O3, Al2O3",,10.1016/j.ceramint.2013.08.097,2014,,FALSE
Er-Bi-O,mp-1069613,[422647],Er2BiO2,0,I4/mmm,y,y,1273,0,vacuum,{},{},3,,"Bi, Er, Er2O3",,10.1021/ja111015p,2011,,FALSE
Er-Co-O,mp-562779,[172049],ErCoO3,0,Pnma,y,y,1203,6,,{},"{""step1"": {""cool rate"": [], ""cool time"": [], ""cool medium"": [], ""cool type"": [""quench""], ""end temperature"": [""RT""], ""remark"": []}}",1,,"Er2O3, Co3O4, KClO3",,10.1016/0022-4596(74)90075-9,1974,,TRUE
Er-Cr-O,mp-19063,"[28487, 251084, 183759, 251083]",ErCrO3,0,Pnma,y,y,1673,AP,,{},{},1,,"Er2O3, Cr2O3",,10.1103/PhysRevB.89.144401,2014,,FALSE
Er-Cr-O,mp-19240,"[96406, 26986, 95166]",ErCrO4,0,I4_1/amd,y,y,773,,O2,{},{},3,,"Er(NO3)3·H2O, Cr(NO3)3·H2O",,10.1016/S0022-4596(02)00203-7,2003,,FALSE
Er-Cu-O,mp-21160,"[79430, 79588]",Er2Cu2O5,0.045452071,Pna2_1,y,y,1223,AP,,{},{},1,,"Er2O3, CuO",,10.1006/jssc.1995.1141,1995,,FALSE
Er-Fe-O,mp-560103,[71464],Er3Fe5O12,0.035444417,Ia-3d,y,y,1673,,O2,{},{},2,,"Er2O3, Fe2O3",,10.1063/1.4776716,2013,,FALSE
Er-Fe-O,mp-19415,[67700],ErFe2O4,0.102094689,R-3m,y,y,1473,,CO2/H2,{},"{""step1"": {""cool rate"": [], ""cool time"": [{""value"": ""0"", ""unit"": ""C""}], ""cool medium"": [], ""cool type"": [""quench""], ""end temperature"": [""RT""], ""remark"": []}}",1,,"Er2O3, Fe2O3",,10.1016/0921-4526(92)90408-K,1992,,FALSE
Er-Fe-O,mp-19935,"[27282, 98307, 16782, 189733]",ErFeO3,0.017954014,Pnma,y,y,1673,AP,,{},{},3,,"Er2O3, Fe2O3",,10.1016/j.jallcom.2014.08.026,2014,,FALSE
Er-Ga-O,mp-12236,[9238],Er3Ga5O12,0,Ia-3d,?,?,1773,,Ar,{},{},,,"Ga2O3, Er2O3",,10.1088/0022-3727/41/6/065406,2008,inhomogeneous; minority phase,FALSE
Er-Ga-O,mp-31115,[99497],Er3GaO6,0.006863194,Cmc2_1,y,y,1673,AP,,{},"{""step1"": {""cool rate"": [], ""cool time"": [], ""cool medium"": [""air""], ""cool type"": [""quench""], ""end temperature"": [""RT""], ""remark"": []}}",3,,"Er2O3, Fe2O3",,10.1016/j.jssc.2003.12.024,2004,,FALSE
Er-Ge-O,mp-13643,[16164],Er2Ge2O7,0,P4_12_12,y,y,1423,AP,,{},{},2,,"Er2O3, GeO2",,10.1016/S0304-8853(03)00265-8,2003,,FALSE
Er-Ge-O,mp-1204871,[200810],Er4Ge3O15,0.249841134,Cmcm,?,?,,,,{},{},,,,,,,ICSD 200810 contain hydrogen,N/A
Er-Hf-O,mp-557890,[162006],Er2Hf2O7,0.026656234,Fd-3m,y,y,,,,{},{},,,,,10.1063/1.2969662,2008,"modelling of Er2Hf2O7, which can be synthesized via solid state reaction: 10.1016/j.jssc.2006.03.036",FALSE