system,mp_id,icsd_ids,composition,e_above_hull,Spacegroup Number,solid_state_synthesized_composition,solid_state_synthesized_structure,sss_highest_temperature(K),sss_pressure(GPa),sss_atmosphere,sss_mixing_condition,sss_cooling_condition,sss_heating_step,single_crystal,sss_precursor,other_synthesis_method,reference,reference_year,comment,google_translate
K-As-O,mp-680301,[412391],K3AsO4,0,Cccm,y,y,973,,Ar,{},"{""step1"": {""cool rate"": [], ""cool time"": [], ""cool medium"": [], ""cool type"": [""furnace cool""], ""end temperature"": [""RT""], ""remark"": []}}",1,,"As, KO2",,10.1515/znb-2002-0601,2002,inhomogeneous,TRUE
K-As-O,mp-27674,[23302],K5As3O10,0,P2_12_12_1,n,n,,,,{},{},,,"As2O5, K2O",from melt,10.1107/S0567740880006747,1980,,FALSE
K-As-O,mp-1095551,[181897],K8AsO3,0.154568926,Pm-3m,?,?,,,,{},{},,,,,10.1016/j.ssc.2011.05.002,2011,modelling of K2O0.75As0.25,FALSE
K-As-O,mp-30298,[413149],KAsO2,0,Pbcm,y,y,773,,protective gas,{},"{""step1"": {""cool rate"": [{""value"": ""50"", ""unit"": ""C/h""}], ""cool time"": [], ""cool medium"": [], ""cool type"": [], ""end temperature"": [""RT""], ""remark"": []}}",1,,"As2O3, K",,10.1515/znb-2003-0704,2003,,TRUE
K-As-O,mp-1194970,[194476],KAsO3,0.007091702,Pbcn,n,n,,,,{},{},,,KH2AsO4,decomposition,10.1021/cg500733w,2014,gamma phase,FALSE
K-As-O,mp-1192552,[194474],KAsO3,0,P-1,n,n,,,,{},{},,,,,10.1021/cg500733w,2014,beta phase; high temperature phase of mp-1194970,FALSE
K-As-O,mp-1095533,[29092],KAsO4,0.26939248,I-42d,?,?,,,,{},{},,,,,,,ICSD 29092 contain hydrogen,N/A
K-Au-O,mp-9200,[79086],K3AuO,0,Pm-3m,n,n,,,,{},{},,,,from melt,10.1002/zaac.19956210207,1995,,TRUE
K-Au-O,mp-27418,[15115],KAuO2,0.027886589,Pmmm,y,y,673,,"Ar,O",{},{},1,,"K2O1.14, Au2O3",,10.1002/zaac.19703750107,1970,,TRUE
K-Be-O,mp-27915,[23633],K2BeO2,0,P2_1/c,y,y,873,,,{},{},1,,"KO0.54, BeO",,10.1007/BF00596202,1973,,TRUE
K-Be-O,mp-28158,[33808],K4Be3O5,0,C2/c,y,y,873,,,{},{},1,,"KO0.51, BeO",,10.1002/zaac.19905910124,1990,,TRUE
K-Bi-O,mp-29524,[407293],K3BiO3,0,I-43m,y,y,823,,Ar,{},"{""step1"": {""cool rate"": [{""value"": ""10"", ""unit"": ""C/h""}], ""cool time"": [], ""cool medium"": [], ""cool type"": [], ""end temperature"": [""RT""], ""remark"": []}}",1,y,"K1.997O, Bi2O3",,10.1515/znb-1997-0902,1997,,TRUE
K-Bi-O,mp-30120,[412393],K3BiO4,0,P-1,y,y,973,,Ar,{},"{""step1"": {""cool rate"": [], ""cool time"": [], ""cool medium"": [], ""cool type"": [""furnace cool""], ""end temperature"": [""RT""], ""remark"": []}}",1,,"KO2, Bi",,10.1515/znb-2002-0601,2002,,TRUE
K-Bi-O,mp-29542,[408000],K4Bi2O5,0.00453466,P-1,y,y,873,,Ar,{},{},1,,"K2O, Bi2O3",,10.1006/jssc.1998.7853,1998,inhomogeneous,FALSE
K-Bi-O,mp-1102773,[181899],K8BiO3,0.221572871,Pm-3m,?,?,,,,{},{},,,,,10.1016/j.ssc.2011.05.002,2011,modelling of K2O0.75Bi0.25,FALSE
K-Bi-O,mp-559498,[95895],K9Bi5O13,0.005170535,P2_1/c,?,?,973,AP,,{},{},,,"KO2, Bi",,10.1515/znb-2002-1003,2002,unintended product; inhomogeneous,TRUE
K-Bi-O,mp-30988,"[16239, 407209]",KBiO2,0,C2/c,y,y,973,,Ar,{},"{""step1"": {""cool rate"": [{""value"": ""10"", ""unit"": ""C/h""}], ""cool time"": [], ""cool medium"": [], ""cool type"": [], ""end temperature"": [""RT""], ""remark"": []}}",1,,"K1.997O, Bi2O3",,10.1002/(SICI)1521-3749(199802)624:2<205::AID-ZAAC205>3.0.CO;2-S,1999,,TRUE
K-Bi-O,mp-29799,"[41204, 76976]",KBiO3,0,Pn-3,y,y,1273,7,,"{""step1"": {""grind method"": [""agate mortar""], ""wet/dry"": [], ""liquid"": []}}",{},1,,"Bi2O3, KO2",,10.1016/S0921-4534(01)00263-5,2001,ICSD 41204 not found,FALSE
K-Cd-O,mp-7534,[16223],K2Cd2O3,0,P2_1/c,y,y,773,,Ar,{},{},2,,"K2O, CdO",,10.1002/zaac.200900120,2009,,TRUE
K-Cd-O,mp-27742,[25004],K2CdO2,0,Pbcn,?,?,,,,{},{},,,,,10.1002/zaac.200900120,2009,inhomogeneous; insufficent information,TRUE
K-Cd-O,mp-17161,[62053],K6CdO4,0,P6_3mc,y,y,773,,,{},{},1,,"KO0.48, CdO",,10.1007/BF00809217,1987,,TRUE
K-Co-O,mp-28890,[74940],K2CoO2,0,P2_1/c,y,y,723,,Ar,{},{},1,,"K2O, CdO, Co",,10.1002/zaac.201200076,2012,inhomogeneous,FALSE
K-Co-O,mp-28825,[73212],K3CoO2,0,Pnma,y,y,823,,,{},{},1,,"K2O, CoO",,10.1002/zaac.19936190520,1993,from abstract,FALSE
K-Co-O,mp-562471,[152439],K4Co7O14,0.098620174,P6_3/m,y,y,873,,O2,{},"{""step1"": {""cool rate"": [{""value"": ""60"", ""unit"": ""C/h""}], ""cool time"": [], ""cool medium"": [], ""cool type"": [], ""end temperature"": [{""value"": ""300"", ""unit"": ""C""}], ""remark"": []}}",1,,"KOH, Co3O4",,10.1021/ic0514804,2005,excess KOH,FALSE
K-Co-O,mp-510366,[409792],K6Co2O5,0,P4_2/mnm,y,y,1026,,Ar,"{""step1"": {""grind method"": [""ball milling""], ""wet/dry"": [], ""liquid"": []}}",{},1,,"KN3, KNO3, Co3O4",,10.1524/ncrs.2004.219.14.371,2004,,FALSE
K-Co-O,mp-19141,"[35367, 6153]",K6Co2O7,0,P2_1/c,y,y,853,,,{},{},1,,"KO1.47, Co3O4",,10.1002/zaac.201200076,2012,,FALSE
K-Co-O,mp-20528,[15770],KCoO2,0.48800395,P4/nmm,y,y,973,,Ar,{},{},1,,"Co3O4, KO0.9",,10.1002/zaac.201200076,2012,,FALSE
K-Co-O,mp-18895,[4199],KCoO2,0.245187192,I-42d,y,y,,,,{},{},,,,,10.1002/zaac.201200076,2012,"other phase of mp-20528, which can be synthesized via solid state synthesis",FALSE
K-Cr-O,mp-542666,"[24199, 34326, 166635, 10371, 59984, 59983]",K2Cr2O7,0,P-1,?,?,,,,{},{},,,,,10.1139/v68-155,1968,insufficient information: no synthesis information,FALSE
K-Cr-O,mp-1191575,[15824],K2Cr2O7,0.606181865,C2/m,?,?,,,,{},{},,,,,10.1107/S0108270100003917,2000,old refinement of mp-561028,FALSE
K-Cr-O,mp-561028,[280204],K2Cr2O7,0.002118634,C2/c,?,n,,,,{},{},,,"K2O, CrO3, H2O",hydrothermal,10.1107/S0108270100003917,2000,beta phase,FALSE
K-Cr-O,mp-27601,"[8175, 20210]",K2Cr3O10,0.021517041,P2_1/c,n,n,,,,{},{},,,,hydrothermal,10.1107/S0567740879003769,1979,,TRUE
K-Cr-O,mp-542693,"[171184, 166636, 24987]",K2Cr4O13,0.029998046,Pc,n,n,,,,{},{},,,,evaporation,10.1107/S0108270105035833,2005,,FALSE
K-Cr-O,mp-19232,"[2828, 88581, 2402, 30266]",K2CrO4,0,Pnma,n,n,,,,{},{},,,,hydrometallurgical,10.1017/S0885715617000690,2017,,FALSE
K-Cr-O,mp-19414,[108934],K3CrO4,0.013856632,I-42m,y,?,,,,{},{},,,,,10.1002/zaac.19754120311,1975,"other phase of K3CrO4, which can be synthesized via solid state synthesis: 10.1139/v78-071; insufficient information",FALSE
K-Cr-O,mp-18876,"[9356, 280253, 23536, 30404, 9676]",K3CrO8,0.323874128,I-42m,n,n,,,,{},{},,,"CrO3, KOH, H2O2",evaporation,10.1021/cm000643d,2001,,FALSE
K-Cr-O,mp-19335,"[15921, 246524, 15898, 82621]",KCr3O8,0,C2/m,y,y,573,AP,,{},{},3,,"Cr2O3, Cr(NO3)3·9H2O, KNO3",,10.1016/S0022-3697(96)00079-0,1996,ICSD 246524 not found,FALSE
K-Cr-O,mp-18881,"[183641, 183640, 183639, 82276, 491]",KCr4O8,0.032885212,I4/m,y,y,1523,6.5,,{},{},1,,"K2Cr2O7, Cr2O3",,10.1039/C1DT11558H,2011,,FALSE
K-Cr-O,mp-546552,"[40267, 108818, 182236]",KCrO2,0,R-3m,y,y,853,,Ar,{},"{""step1"": {""cool rate"": [], ""cool time"": [], ""cool medium"": [], ""cool type"": [""quench""], ""end temperature"": [""RT""], ""remark"": []}}",1,,"KN3, Cr2O3, KNO3",,10.1002/zaac.201200476,2013,,FALSE
K-Cu-O,mp-10914,[94387],K3Cu5O4,0,P2_1/c,y,y,773,,Ar,{},{},1,,"K2O, CuO",,10.1002/1521-3749(200106)627:6<1192::AID-ZAAC1192>3.0.CO;2-V,2001,inhomogeneous,TRUE
K-Cu-O,mp-28273,[48180],K3CuO2,0,P4_12_12,y,y,933,,Ar,{},{},1,,"KO0.52, Cu2O",,10.1002/zaac.19855210210,1985,,TRUE
K-Cu-O,mp-1103519,"[37325, 188522]",KCuO,0.001043583,I-4m2,y,?,,,,{},{},,,,,10.1002/zaac.19905850109,1990,,FALSE
K-Cu-O,mp-7911,"[25695, 40158]",KCuO,0,I4/mmm,y,y,873,,Ar,{},{},1,,"K2O, Cu2O",,10.1002/zaac.19683600302,1968,,TRUE
K-Cu-O,mp-1009020,[188529],KCuO,0.858831248,F-43m,y,?,,,,{},{},,,,,10.1016/j.ssc.2012.10.016,2013,modelling of cubic KCuO,FALSE
K-Cu-O,mp-3982,"[203081, 202997, 15095]",KCuO2,0,Cmcm,y,y,723,,O2,{},{},1,,"KO2, CuO",,10.1016/0022-4596(89)90047-9,1989,,FALSE
K-Er-O,mp-7959,[27002],KErO2,0,R-3m,?,?,823,0,vacuum,"{""step1"": {""grind method"": [""mortar""], ""wet/dry"": [], ""liquid"": []}}",{},1,,"K2O, Er2O3",,"Comptes Rendus des Seances de l'Academie des Sciences, Serie C: Sciences Chimiques 265, 801 (1967)",1967,,TRUE
K-Fe-O,mp-14679,[67170],K14Fe4O13,0.274748716,P2_1/c,?,?,883,,,{},{},1,,"K2O, LiFeO2",,10.1002/zaac.19905800108,1990,from abstractl insufficent information: reason of using LiFeO2,FALSE
K-Fe-O,mp-558482,[415753],K17Fe5O16,0,Cm,y,y,875,,Ar,{},"{""step1"": {""cool rate"": [], ""cool time"": [], ""cool medium"": [], ""cool type"": [""quench""], ""end temperature"": [""RT""], ""remark"": []}}",2,,"K, KO2, Fe2O3",,10.1515/znb-2005-1202,2005,,TRUE
K-Fe-O,mp-19320,"[32756, 2876]",K2FeO4,0,Pnma,y,y,673,,O2,"{""step1"": {""grind method"": [""mechanical grinding""], ""wet/dry"": [], ""liquid"": [""inert liquids""]}}",{},1,,"Fe2O3, KOx",,10.1007/BF02035384,1991,,FALSE
K-Fe-O,mp-18865,"[94465, 94466]",K3Fe2O4,0.026880142,Fddd,n,n,,,,{},{},,,Cs3K3CdO4,reaction with wall,10.1002/1521-3749(200111)627:11<2537::AID-ZAAC2537>3.0.CO;2-G,2001,,TRUE
K-Fe-O,mp-31218,[73215],K3FeO2,0.033217395,P4_12_12,n,n,,,,{},{},,,"CdO, K6CdO4",reaction with wall,10.1002/zaac.19936190602,1993,from abstract,FALSE
K-Fe-O,mp-504570,"[16534, 6149]",K3FeO3,0.378197607,C2/m,y,y,873,AP,,{},{},1,,"FeO, KO0.56",,10.1002/ange.19730851311,1973,,TRUE
K-Fe-O,mp-28696,[65977],K3FeO4,0,Pnma,y,y,743,,,{},{},2,,"KFeO2, K2O2",,10.1002/zaac.19905860116,1990,,TRUE
K-Fe-O,mp-553960,[154372],K4Fe2O5,0.668113988,P2_1/c,y,y,1175,,Ar,{},{},1,,"K, KO2, Fe2O3",,10.1515/znb-2005-0706,2005,,TRUE
K-Fe-O,mp-12040,[415754],K5FeO4,0,Pbca,y,y,875,,Ar,{},"{""step1"": {""cool rate"": [], ""cool time"": [], ""cool medium"": [], ""cool type"": [""quench""], ""end temperature"": [""RT""], ""remark"": []}}",2,,"K, KO2, Fe2O3",,10.1515/znb-2005-1202,2005,,TRUE
K-Fe-O,mp-36915,[174312],K6Fe2O5,0.618611411,Cm,y,y,973,,,{},"{""step1"": {""cool rate"": [{""value"": ""100"", ""unit"": ""C/h""}], ""cool time"": [], ""cool medium"": [], ""cool type"": [], ""end temperature"": [""RT""], ""remark"": []}}",1,,"K, KO2, Fe2O3",,freidok.uni-freiburg.de/data/2942,2006,,TRUE
K-Fe-O,mp-1196507,[174307],K9Fe2O8,0.184857395,C2/c,?,?,,,,{},{},,,"K, KO2, Fe2O3",,freidok.uni-freiburg.de/data/2942,2006,uncertain phase percentage,TRUE
K-Fe-O,mp-1199147,[174311],K9Fe2O7,0.00109788,P2_13,?,?,,,,{},{},,,"K, KO2, Fe2O3",,freidok.uni-freiburg.de/data/2942,2006,uncertain phase percentage,TRUE
K-Fe-O,mp-559464,"[94467, 180530, 200255, 200254, 421185, 157785]",KFeO2,0.450294997,Pbca,y,y,1073,AP,,{},{},1,,"K2CO3, Fe2O3",,10.1023/A:1019013504729,2000,,FALSE
K-Ga-O,mp-13743,[2269],K3GaO3,0,C2/m,y,y,673,,,{},{},1,,"KO0.48, Ga2O3",,10.1002/zaac.19784400108,1978,,TRUE
K-Ga-O,mp-679975,[9009],KGaO2,0.023786561,Pbca,y,?,,,,{},{},,,,,10.1016/S0022-4596(05)80077-5,1990,old refinement of mp-4066,FALSE
K-Ga-O,mp-4066,"[69019, 36651, 68989]",KGaO2,0,Pbca,y,y,1233,AP,,{},{},2,,"K2CO3, Ga2O3",,10.1134/S1023193511120081,2011,,FALSE
K-Ge-O,mp-560875,"[252282, 31969, 189270]",K2Ge4O9,0.006104727,P-3c1,y,y,1273,AP,,"{""step1"": {""grind method"": [""agate mortar""], ""wet/dry"": [], ""liquid"": []}}",{},2,,"K2CO3, GeO2",,10.1111/jace.14363,2016,,FALSE
K-Ge-O,mp-4698,"[69428, 9296]",K2Ge8O17,0.0112454,Pnma,y,y,1223,,,{},{},1,,"K2CO3, GeO2",,10.1524/zkri.1973.138.1-4.439,1973,,FALSE
K-Ge-O,mp-1193879,[36523],K3Ge7O20,0.30086388,P-43m,?,?,,,,{},{},,,,,,,ICSD 36523  contain hydrogen,N/A
K-Ge-O,mp-30962,[98215],K4Ge9O20,0,I4_1/a,n,n,,,,{},{},,,,gel,10.1016/S0022-3093(99)00296-3,1999,,FALSE
K-Ge-O,mp-17015,[412135],K4GeO4,0,P2_1/c,y,?,,,,{},{},,,,,10.1515/znb-2001-1201,2001,other phase of mp-14411; insufficient information: uncertain phase percentage,FALSE
K-Ge-O,mp-14411,[37271],K4GeO4,0.001361813,P-1,y,y,793,,,{},{},1,,"KO0.46, GeO2",,10.1002/zaac.19835051012,1983,,TRUE
K-Ge-O,mp-5116,"[60651, 73550]",K6Ge2O7,0,Pc,y,y,1223,AP,,{},{},3,,"K2GeO3, KOH",,10.1007/BF00811266,1985,,TRUE
K-Hf-O,mp-1201301,[180185],K2Hf2O5,0,Pnna,n,n,,,,{},{},,,"HfO2, KOH",flux,10.1016/j.materresbull.2010.11.025,2011,,FALSE
K-Hf-O,mp-1201456,[88891],K2HfO6,0.722582531,Cmme,?,?,,,,{},{},,,,,,,ICSD 88891 contain hydrogen,N/A
K-Hf-O,mp-974482,[180186],K4Hf5O12,0,P-3m1,n,n,,,,{},{},,,"HfO2, KOH",flux,10.1016/j.materresbull.2010.11.025,2011,,FALSE
K-Hg-O,mp-5860,"[27410, 66275]",K2HgO2,0,I4/mmm,?,?,,,,{},{},,,,,10.1007/BF00624409,1962,insufficient information: no mention of synthesis parameters of K2HgO2,FALSE
K-In-O,mp-554146,[67961],K14In4O13,0,P2_1/c,?,?,,,,{},{},,,"K2O, CdO, In",,10.1002/zaac.19936191103,1993,insufficient information: role of CdO,FALSE
K-In-O,mp-667326,[74911],K5InO4,0,P-1,y,y,773,,Ar,{},{},1,y,"K2O, In2O3, In",,10.1002/zaac.19946200205,1994,inhomogeneous,TRUE
K-Ir-O,mp-30546,[80336],KIr4O8,0.045567576,C2/m,y,y,1273,AP,,{},{},1,,"IrO2, K2CO3",,10.1006/jssc.1995.1356,1995,,FALSE
K-Ir-O,mp-8429,[47223],K4IrO4,0,C2/m,y,y,1053,,,{},{},3,,"IrO2, KO0.4",,10.1007/BF00404896,1985,,TRUE
K-Ir-O,mp-639811,[4200],KIrO3,0,Pn-3,y,y,973,,Ar,{},{},,,"KO2, Ir",,10.1016/0022-5088(75)90132-0,1975,inhomogeneous,TRUE
K-La-O,mp-7958,[27001],KLaO2,0,R-3m,y,y,1273,,,{},{},1,,"K2CO3, La2O3",,10.1016/S0040-6031(99)00152-5,1999,,FALSE
K-Li-O,mp-559612,[30964],KLiO,0.012298237,Cmce,y,y,770,,,{},{},1,y,"K2O, Li2O",,10.1524/zkri.1985.171.1-2.1,1985,,TRUE
K-Mg-O,mp-12171,[2340],K6MgO4,0,P6_3mc,y,y,1073,,N2,{},"{""step1"": {""cool rate"": [], ""cool time"": [], ""cool medium"": [], ""cool type"": [""slow cooling""], ""end temperature"": [""RT""], ""remark"": []}}",1,,"K2O, MgO",,10.1107/S056774087400776X,1974,,TRUE
K-Mn-O,mp-19148,[61038],K2Mn2O3,0,P2_1/c,y,y,803,,,{},{},1,,"MnO, KO0.48",,10.1002/zaac.19855301114,1985,,TRUE
K-Mn-O,mp-504636,[22245],K2MnO4,0,Pnma,n,n,,,,{},{},,,"KOH, MnO2",from melt,10.1021/ie800240m,2008,,FALSE
K-Mn-O,mp-510713,[165117],K3Mn2O8,0.005342888,R-3m,n,n,,,,{},{},,,KMnO4,decomposition,10.1016/0022-4596(77)90170-0,1977,,FALSE
K-Mn-O,mp-540914,"[34392, 2488]",K3MnO3,0,P2_1/c,y,y,883,,,{},{},1,y,"MnO, KO0.48",,10.1007/BF00597313,1976,,TRUE
K-Mn-O,mp-19140,[108935],K3MnO4,0,I-42m,?,?,,,,{},{},,,,,10.1023/A:1006748107066,2000,insufficient information: can't determine if it involves coprecipitation process,FALSE
K-Mn-O,mp-1194679,[428944],K5Mn3O6,0.185860697,Pna2_1,y,y,773,,Ar,"{""step1"": {""grind method"": [""agate mortar""], ""wet/dry"": [], ""liquid"": []}}",{},1,,"KN3, KNO3, MnO",,10.1002/zaac.201400618,2015,,FALSE
K-Mn-O,mp-554900,[31983],KMnO2,0,P2_1/m,y,y,893,,Ar,{},{},1,,"KO0.56, MnO2",,10.1002/zaac.19824900112,1982,,TRUE
K-Mn-O,mp-704731,[52378],KMnO4,0.027628656,Pnma,?,?,,,,{},{},,,,,10.1021/ic50049a015,1967,old refinement of mp-19046,FALSE
K-Mn-O,mp-19046,"[89506, 413443, 22244, 170088, 44625, 44416]",KMnO4,0.007225327,Pnma,?,?,,,,{},{},,,,,,,insufficient information: no synthesis information,N/A
K-Mo-O,mp-28849,"[68533, 73807]",KMo4O6,0.322024724,P4/mbm,?,?,,,,{},{},,,,,10.1016/0022-5088(90)90038-L;10.1006/jssc.1993.1008,1990;1993,"conflicting information: ICSD ids are 2 different polymorphs, with one form that can be synthesized via solid state reaction",FALSE
K-Mo-O,mp-16909,[1053],KMo3O9,0.038546078,C2/m,?,?,,,,{},{},,,,,10.1515/znb-1977-0402,1977,insufficient information: no synthesis information,FALSE
K-Mo-O,mp-27597,[20133],K2Mo2O7,0,P-1,y,y,753,AP,,"{""step1"": {""grind method"": [""ball milling""], ""wet/dry"": [], ""liquid"": [""ethanol""]}}",{},2,,"K2CO3, MoO3",,10.1111/jace.12646,2013,,FALSE
K-Mo-O,mp-540788,"[24118, 16870]",K2Mo3O10,0,C2/c,y,y,813,AP,,"{""step1"": {""grind method"": [""ball milling""], ""wet/dry"": [], ""liquid"": [""ethanol""]}}",{},2,,"K2CO3, MoO3",,10.1111/jace.12646,2013,,FALSE
K-Mo-O,mp-1199940,[79413],K2Mo3O13,0.496582858,Cmcm,?,?,,,,{},{},,,,,,,ICSD 79413 contain hydrogen,N/A
K-Mo-O,mp-637680,[391225],K2Mo4O13,0.003880428,Pbca,y,n,,,,{},{},,,,hydrothermal,10.1016/j.jssc.2003.09.029,2004,other phase of mp-542658,FALSE
K-Mo-O,mp-542658,"[59745, 16122]",K2Mo4O13,0.010300279,P-1,y,y,823,AP,,"{""step1"": {""grind method"": [""ball milling""], ""wet/dry"": [], ""liquid"": [""ethanol""]}}",{},2,,"K2CO3, MoO3",,10.1111/jace.12646,2013,,FALSE
K-Mo-O,mp-557167,[74043],K2Mo7O20,0.005509462,Pbcm,?,?,,,,{},{},,,,,10.1021/ic00072a025,1993,not synthesized,FALSE
K-Mo-O,mp-18914,"[16154, 150842]",K2MoO4,0,C2/m,y,y,900,AP,,{},"{""step1"": {""cool rate"": [], ""cool time"": [], ""cool medium"": [], ""cool type"": [""slow cooling""], ""end temperature"": [""RT""], ""remark"": []}}",1,,"K2CO3, MoO3",,10.1016/S0921-4526(03)00081-4,2003,,FALSE
K-Mo-O,mp-559525,[153980],K2MoO8,0.382088651,R-3c,n,n,,,,{},{},,,"K2MoO4,  H2O2, H2O, C2H5OH",wet synthesis,10.1154/1.1997170,2012,,FALSE
K-Mo-O,mp-29053,[80941],K3Mo14O22,0.349424181,P2_1/c,y,y,1473,0,vacuum,{},{},1,,"MoO3, K2MoO4, Mo",,10.1021/ic00128a026,1995,excess K2MoO4,FALSE
K-Mo-O,mp-541614,"[100327, 73508, 62828, 73509]",K3Mo10O30,0.018309979,C2/m,n,n,,,,{},{},,,"K2MoO4, MoO3",electrolytic reduction,10.1016/0022-4596(85)90154-9,1985,,FALSE
K-Mo-O,mp-559753,[415961],K6Mo10O33,0.012804015,P1,y,y,923,,Ar,{},"{""step1"": {""cool rate"": [], ""cool time"": [], ""cool medium"": [], ""cool type"": [""quench""], ""end temperature"": [""RT""], ""remark"": []}}",1,,"MoO3, K2MoO4",,10.1515/znb-2007-0101,2006,,FALSE
K-Mo-O,mp-505783,[280882],KMo5O13,0.044807984,Cmcm,n,n,,,,{},{},,,"K2CO3, (NH4)6Mo7O24·4H2O, H3BO3",flux,10.1107/S0108270102007886,2002,,FALSE
K-Mo-O,mp-1191627,[202392],KMoO4,0.204786451,P-1,?,?,,,,{},{},,,,,,,ICSD 202392 contain hydrogen,N/A
K-Na-O,mp-6948,[32743],KNaO,0.014802455,P4/nmm,y,y,630,,,{},{},1,,"K2O, Na2O",,10.1515/znb-1982-0704,1981,,TRUE
K-Nb-O,mp-650928,[62550],K3Nb7O19,0.002967193,P-1,y,y,1325,AP,,{},{},2,,"Nb2O5, KNbO3",,10.1107/S0108768187097945,1987,,FALSE
K-Nb-O,mp-5867,"[2298, 72514]",K3Nb8O21,0.003971725,P6_3/mcm,y,y,1423,AP,,"{""step1"": {""grind method"": [""agate mortar""], ""wet/dry"": [], ""liquid"": []}}","{""step1"": {""cool rate"": [], ""cool time"": [], ""cool medium"": [""air""], ""cool type"": [""quench""], ""end temperature"": [""RT""], ""remark"": []}}",2,,"K2CO3, Nb2O5",,10.1016/0022-4596(76)90173-0,1976,,TRUE
K-Nb-O,mp-14175,[30405],K3NbO8,0,I-42m,n,n,,,,{},{},,,"KOH, Nb2O5, H2O2",wet synthesis,10.1021/ac9812330,1999,,FALSE
K-Nb-O,mp-560692,[35030],K4Nb6O17,0,Pna2_1,y,y,1423,AP,,{},"{""step1"": {""cool rate"": [{""value"": ""10"", ""unit"": ""C/h""}], ""cool time"": [], ""cool medium"": [], ""cool type"": [], ""end temperature"": [""RT""], ""remark"": []}}",1,,"K2CO3, Nb2O5",,10.1016/0022-4596(82)90251-1,1982,,TRUE
K-Nb-O,mp-27998,[31994],KNb3O8,0,Cmcm,y,y,957,AP,,{},"{""step1"": {""cool rate"": [{""value"": ""10"", ""unit"": ""C/h""}], ""cool time"": [], ""cool medium"": [], ""cool type"": [], ""end temperature"": [""RT""], ""remark"": []}}",1,y,"Nb2O5, K2CO3",,10.1107/S056774088200781X,1982,,TRUE
K-Nb-O,mp-554863,[170693],KNb5O13,0.004257871,Pbcm,y,y,1073,AP,,"{""step1"": {""grind method"": [""agate mortar""], ""wet/dry"": [], ""liquid"": []}}","{""step1"": {""cool rate"": [], ""cool time"": [], ""cool medium"": [], ""cool type"": [], ""end temperature"": [""RT""], ""remark"": []}}",2,,"Nb2O5, K2CO3",,10.1021/cm200958r,2011,,FALSE
K-Nb-O,mp-22826,[71218],KNb8O14,0,Pbam,y,y,1273,AP,,{},{},1,,"KNbO3, NbO2, NbO",,10.1039/DT9910000829,1991,,FALSE
K-Nb-O,mp-935811,[190920],KNbO3,0.012912934,Pm-3m,y,y,,,,{},{},,,,,10.7567/JJAP.52.09KF04,2013,high temperature phase of mp-5246,FALSE
K-Nb-O,mp-7375,"[190923, 9534]",KNbO3,0,R3m,y,y,,,,{},{},,,,,10.7567/JJAP.52.09KF04,2013,low temperature phase of mp-5246,FALSE
K-Nb-O,mp-5246,"[14363, 9533, 190922]",KNbO3,0.000133752,Amm2,y,y,1373,AP,,"{""step1"": {""grind method"": [""mixed""], ""wet/dry"": [], ""liquid"": [""acetone""]}}",{},2,,"K2CO3, Nb2O5",,10.7567/JJAP.52.09KF04,2013,,FALSE
K-Nb-O,mp-4342,"[9532, 9535, 190921]",KNbO3,0.002133648,P4mm,y,y,,,,{},{},,,,,10.7567/JJAP.52.09KF04,2013,high temperature phase of mp-5246,FALSE
K-Ni-O,mp-19252,"[201891, 21069]",K2NiO2,0,I4/mmm,y,y,1023,,Ar,{},{},2,,"KO0.56, NiO1.05",,10.1002/zaac.201000443,2011,,TRUE
K-Ni-O,mp-27565,[14157],K3Ni2O4,0.017271673,Cmcm,y,y,723,,,{},{},1,,"K2O, NaNiO2, NiO",,10.1002/zaac.19804620111,1980,,TRUE