system,mp_id,icsd_ids,composition,e_above_hull,Spacegroup Number,solid_state_synthesized_composition,solid_state_synthesized_structure,sss_highest_temperature(K),sss_pressure(GPa),sss_atmosphere,sss_mixing_condition,sss_cooling_condition,sss_heating_step,single_crystal,sss_precursor,other_synthesis_method,reference,reference_year,comment,google_translate
Sr-Se-O,mp-555098,[419386],SrSeO3,0.000616991,Pnma,n,n,,,,{},{},,,,flux,10.1002/zaac.200870104,2008,other phase of mp-3395,FALSE
Sr-Se-O,mp-3395,"[240888, 159881]",SrSeO3,0,P2_1/m,n,n,,,,{},{},,,,precipitation  ,10.1107/S1600536807025135,2007,,FALSE
Sr-Se-O,mp-4092,"[40923, 47004]",SrSeO4,0,P2_1/c,n,n,,,,{},{},,,"SeO2, NaOH, H2O, Sr(NO3)2",hydrothermal,10.1107/S0108270184002869,1984,ICSD 40923 doi not working,FALSE
Sr-Sn-O,mp-4287,"[81851, 59759, 59757, 59760, 150383]",Sr2SnO4,0,P4_2/ncm,y,y,1723,AP,,{},"{""step1"": {""cool rate"": [], ""cool time"": [], ""cool medium"": [], ""cool type"": [""furnace cool""], ""end temperature"": [""RT""], ""remark"": []}}",1,,"SrCO3, SnO2",,10.1016/j.jssc.2004.08.023,2003,,FALSE
Sr-Sn-O,mp-1194203,"[150384, 59758]",Sr2SnO4,0.002701196,Pccn,y,?,,,,{},{},,,,,10.1016/j.jssc.2004.08.023,2003,other refinement of mp-4287,FALSE
Sr-Sn-O,mp-4941,"[150385, 81852, 150386]",Sr2SnO4,0.002095486,Cmce,y,y,,,,{},{},,,,,10.1016/j.jssc.2004.08.023,2003,high temperature phase of mp-4287,FALSE
Sr-Sn-O,mp-3376,"[150390, 27114, 150388, 84245, 150387, 150389]",Sr2SnO4,0.013532244,I4/mmm,y,y,,,,{},{},,,,,10.1016/j.jssc.2004.08.023,2003,high temperature phase of mp-4287,FALSE
Sr-Sn-O,mp-17743,[90847],Sr3Sn2O7,0.002867751,Cmcm,y,y,1573,,"air,O2",{},{},4,,"Sr(NO3)2, SnO2",,10.1016/S1466-6049(00)00013-1,2000,,FALSE
Sr-Sn-O,mp-7961,"[201036, 181088]",Sr3SnO,0,Pm-3m,y,y,1073,0,vacuum,{},{},1,,"Sr, SnO",,10.1038/ncomms13617,2016,excess Sr; ICSD 181088 not found,FALSE
Sr-Sn-O,mp-12866,[153531],SrSnO3,0.005901968,Imma,y,y,,,,{},{},,,,,10.1016/j.materresbull.2004.11.004,2005,high temperature phase of mp-2879,FALSE
Sr-Sn-O,mp-2879,"[238971, 238970, 90845, 97432, 188140, 153530, 190602, 424825, 161783, 261491, 90846, 262981, 59161, 261492]",SrSnO3,0,Pnma,y,y,1473,AP,,{},{},2,,"SrCO3, SnO2",,10.1016/j.materresbull.2004.11.004,2005,,FALSE
Sr-Sn-O,mp-546973,"[181089, 27047]",SrSnO3,0.047749261,Pm-3m,y,?,,,,{},{},,,,,10.1016/j.materresbull.2004.11.004,2005,old refinement of mp-2879,FALSE
Sr-Sn-O,mp-12867,[153532],SrSnO3,0.011465718,I4/mcm,y,y,,,,{},{},,,,,10.1016/j.materresbull.2004.11.004,2005,high temperature phase of mp-2879,FALSE
Sr-Ta-O,mp-13664,[16388],Sr2Ta2O7,5.60E-05,Cmc2_1,y,y,,,,{},{},,,,,10.1107/S0567740881002124,1981,low temperature phase of mp-12286,FALSE
Sr-Ta-O,mp-12286,[601],Sr2Ta2O7,0,Cmcm,y,y,1450,AP,,{},{},1,,"SrCO3, Ta2O5",,10.1021/jp9919056,1999,,FALSE
Sr-Ta-O,mp-17715,"[262843, 39706]",SrTa2O6,0,Pnma,y,y,1473,AP,,"{""step1"": {""grind method"": [""mixed""], ""wet/dry"": [], ""liquid"": [""ethanol""]}}",{},2,,"SrCO3, Ta2O5",,10.1016/j.jssc.2012.03.047,2012,alpha phase,FALSE
Sr-Ta-O,mp-1091368,[154176],SrTa2O7,0.308051808,I4/mmm,?,?,,,,{},{},,,,,,,ICSD 154176 contain hydrogen,N/A
Sr-Ta-O,mp-541462,[79704],SrTa4O11,0,P6_322,y,y,1300,AP,,{},{},3,,"Sr(NO3)2, Ta2O5",,10.1107/S0108270195004264,1995,,FALSE
Sr-Tb-O,mp-18042,[30341],SrTb2O4,0.008663321,Pnma,y,y,1673,AP,,"{""step1"": {""grind method"": [""ball milling""], ""wet/dry"": [], ""liquid"": []}}",{},3,,"SrCO3, Tb4O7",,10.3389/fphy.2014.00042,2014,,FALSE
Sr-Tb-O,mp-21898,"[89027, 86735, 86734, 89026]",SrTbO3,0.119119999,Pnma,y,y,1573,,O2,"{""step1"": {""grind method"": [""agate mortar""], ""wet/dry"": [], ""liquid"": []}}","{""step1"": {""cool rate"": [], ""cool time"": [], ""cool medium"": [], ""cool type"": [""furnace cool""], ""end temperature"": [""RT""], ""remark"": []}}",2,,"SrCO3, Tb4O7",,10.1088/0953-8984/10/50/009,1998,,FALSE
Sr-Tc-O,mp-1077918,[236760],Sr2TcO4,0,I4/mmm,y,y,823,0,vacuum,"{""step1"": {""grind method"": [""agate mortar""], ""wet/dry"": [], ""liquid"": [""ethanol""]}}",{},1,,"SrO, TeO2",,10.1016/j.proche.2012.10.095,2012,,FALSE
Sr-Tc-O,mp-1079334,"[183451, 236759]",SrTcO3,0.000121502,Imma,y,y,,,,{},{},,,,,10.1039/C1DT10445D,2011,high temperature phase of mp-1188414,FALSE
Sr-Tc-O,mp-1188414,[183450],SrTcO3,0.000588098,Pnma,y,y,1423,,Ar,"{""step1"": {""grind method"": [""ball milling""], ""wet/dry"": [], ""liquid"": [""cyclohexane""]}}",{},2,,"NH4TcO4, Sr(NO3)2",,10.1039/C1DT10445D,2011,,FALSE
Sr-Tc-O,mp-12631,"[183452, 109076, 183453, 236759]",SrTcO3,0,Pm-3m,y,y,,,,{},{},,,,,10.1039/C1DT10445D,2011,high temperature phase of mp-1188414,FALSE
Sr-Te-O,mp-30026,[56798],Sr3Te4O11,0,P-1,n,?,,,,{},{},,,,,10.1016/S0025-5408(99)00060-4,1999,might be other refinement of mp-1196481; no polymorphs or refinement mentioned in the paper,FALSE
Sr-Te-O,mp-1196481,[88996],Sr3Te4O11,0.000882058,P1,n,n,,,,{},{},,,"SrTeO3, TeO2",from melt,10.1016/S0025-5408(99)00060-4,1999,,FALSE
Sr-Te-O,mp-1200112,[421175],Sr3TeO6,0.003339839,P-1,y,y,1323,AP,,{},{},1,,"SrCO3, TeO2",,10.1016/j.ceramint.2020.11.219,2020,doped: Eu 2%,FALSE
Sr-Te-O,mp-706599,[74395],Sr6Te6O17,0.037640421,C2/c,?,?,,,,{},{},,,,,10.1016/j.solidstatesciences.2006.03.003,2006,other refinement of alpha SrTeO3,FALSE
Sr-Te-O,mp-3252,"[416448, 240868]",SrTe3O8,0.005225617,P4_2/m,y,y,923,0,vacuum,"{""step1"": {""grind method"": [""agate mortar""], ""wet/dry"": [], ""liquid"": []}}","{""step1"": {""cool rate"": [], ""cool time"": [{""value"": ""6"", ""unit"": ""hour""}], ""cool medium"": [], ""cool type"": [], ""end temperature"": [""RT""], ""remark"": []}}",1,,"SrO2, TeO2",,10.1016/j.jssc.2006.07.012,2006,,FALSE
Sr-Te-O,mp-1179320,"[240866, 172561, 172562, 172560]",SrTeO3,0.00196043,C2/c,y,?,,,,{},{},,,,,10.1107/S160053680701210X,2007,beta phase; high temperature phase of alpha SrTeO3,FALSE
Sr-Te-O,mp-561385,"[240967, 249334]",SrTeO3,0,C2,y,y,1073,,N2,{},{},1,,"TeO2, SrCO3",,10.1016/j.solidstatesciences.2006.03.003,2006,alpha phase; gamma phase; conflicting information: the 2 ICSD id refers to room temperature and high temperature phase,FALSE
Sr-Te-O,mp-972117,[182023],SrTeO3,0.000978528,P2_1/c,y,n,,,,{},{},,,SrTeO3(H2O),decomposition,10.1039/C0DT01715A,2011,other phase of mp-561385,FALSE
Sr-Te-O,mp-662523,[74396],SrTeO3,0.029185479,P1,y,?,,,,{},{},,,,,10.1016/j.solidstatesciences.2006.03.003,2006,might be other refinement/phase of alpha SrTeO3,FALSE
Sr-Te-O,mp-4274,"[60507, 8098]",SrTeO4,0,Pbcn,y,y,873,0.0001,O2,{},{},1,,,,10.1021/ic50111a059,1972,,FALSE
Sr-Ti-O,mp-1201432,[421519],Sr15Ti23O61,0.04516344,P2/m,?,?,,,,{},{},,,,,10.1038/nmat2636,2010,modelling of SrTiO3 surface,FALSE
Sr-Ti-O,mp-1198567,[421518],Sr25Ti39O103,0.041406313,P2/m,?,?,,,,{},{},,,,,10.1038/nmat2636,2010,modelling of SrTiO3 surface,FALSE
Sr-Ti-O,mp-540640,[10455],Sr2Ti6O13,0,C2/m,y,y,2073,0,vacuum,{},"{""step1"": {""cool rate"": [], ""cool time"": [], ""cool medium"": [], ""cool type"": [""slow cooling""], ""end temperature"": [""RT""], ""remark"": []}}",1,,"SrO, Ti2O3, TiO2",,10.1515/znb-1980-0103,1980,,TRUE
Sr-Ti-O,mp-5532,"[194714, 194713, 194717, 194715, 194716, 194718, 194719, 20293, 157402]",Sr2TiO4,0,I4/mmm,y,y,1373,AP,,"{""step1"": {""grind method"": [""agate mortar""], ""wet/dry"": [], ""liquid"": []}}",{},2,,"SrCO3, TiO2",,10.1021/acs.inorgchem.5b00102,2015,,FALSE
Sr-Ti-O,mp-3349,"[20294, 63704, 34629]",Sr3Ti2O7,0,I4/mmm,y,y,1673,AP,,{},{},1,,"TiO2, SrCO3",,10.1107/S0365110X58000128,1958,,FALSE
Sr-Ti-O,mp-1197629,[421516],Sr3Ti5O13,0.042091708,P2/m,?,?,,,,{},{},,,,,10.1038/nmat2636,2010,modelling of SrTiO3 surface,FALSE
Sr-Ti-O,mp-31213,[34630],Sr4Ti3O10,0.001063379,I4/mmm,y,y,1753,AP,,{},{},1,,"SrO, TiO2",,10.1016/j.jct.2010.08.011,2011,,FALSE
Sr-Ti-O,mp-1202132,[421520],Sr5Ti7O19,0.092342137,Pmmm,?,?,,,,{},{},,,,,10.1038/nmat2636,2010,modelling of SrTiO3 surface,FALSE
Sr-Ti-O,mp-1202462,[421517],Sr5Ti8O21,0.039891348,P2/m,?,?,,,,{},{},,,,,10.1038/nmat2636,2010,modelling of SrTiO3 surface,FALSE
Sr-Ti-O,mp-1197010,[421515],Sr5Ti9O23,0.075533733,P2/m,?,?,,,,{},{},,,,,10.1038/nmat2636,2010,modelling of SrTiO3 surface,FALSE
Sr-Ti-O,mp-28740,[71299],SrTi11O20,0,P-1,n,n,,,,{},{},,,"SrTiO2.5, SrO.2B2O3",flux,10.1016/0022-4596(91)90196-O,1991,,FALSE
Sr-Ti-O,mp-572124,[97007],SrTi2O5,0.218972957,Cmm2,?,?,,,,{},{},,,,,10.1021/ja034933h,2003,modelling of SrTiO3/TiO2,FALSE
Sr-Ti-O,mp-680689,[97009],SrTi2O5,0.244540886,Cmm2,?,?,,,,{},{},,,,,10.1021/ja034933h,2003,modelling of SrTiO3/TiO2,FALSE
Sr-Ti-O,mp-5229,"[187619, 187480, 181652, 65089, 80874, 182762, 187296, 186895, 65090, 192314, 248379, 65088, 76186, 262269, 80872, 186725, 184455, 23076, 91899, 182764, 80871, 201256, 290370, 182763, 248380, 80873, 290617, 56092, 184921, 170091, 27045, 56717, 191828, 94573]",SrTiO3,0.000882218,Pm-3m,y,y,1623,AP,,"{""step1"": {""grind method"": [""ball milling""], ""wet/dry"": [], ""liquid"": [""ethanol""]}}","{""step1"": {""cool rate"": [], ""cool time"": [], ""cool medium"": [], ""cool type"": [""furnace cool""], ""end temperature"": [""RT""], ""remark"": []}}",2,,"SrCO3, TiO2",,10.1007/s10832-013-9805-0,2013,,FALSE
Sr-Ti-O,mp-4651,"[56718, 187619, 187480, 181652, 65089, 80874, 182762, 187296, 186895, 65090, 192314, 182247, 248379, 65088, 76186, 262269, 80872, 186725, 184455, 23076, 91899, 182764, 80871, 201256, 290370, 182248, 182763, 248380, 80873, 290617, 56092, 184921, 170091, 27045, 56717, 191828, 94573]",SrTiO3,0,I4/mcm,y,y,,,,{},{},,,,,10.1103/PhysRevB.60.2961,1998,low temperature phase of mp-5229; conflicting information: share a few ICSD id with mp-5229,FALSE
Sr-Tl-O,mp-31355,[59799],Sr3Tl2O6,0,Pbam,y,y,1123,,,{},"{""step1"": {""cool rate"": [{""value"": ""100"", ""unit"": ""C/h""}], ""cool time"": [], ""cool medium"": [], ""cool type"": [], ""end temperature"": [""RT""], ""remark"": []}}",1,,"SrO, Tl2O3",,10.1016/j.solidstatesciences.2004.03.003,2004,,FALSE
Sr-Tl-O,mp-4655,"[71325, 67522]",SrTl2O4,0,Pnma,y,y,1173,0,vacuum,{},{},1,,"SrO2, Tl2O3",,10.1107/S0108270192001963,1992,,FALSE
Sr-Tm-O,mp-3446,"[246552, 90440]",SrTm2O4,0,Pnma,y,y,1773,AP,,"{""step1"": {""grind method"": [""agate mortar""], ""wet/dry"": [], ""liquid"": []}}",{},1,,"SrCO3, Tm2O3",,10.1103/PhysRevB.71.144414,2003,,FALSE
Sr-U-O,mp-21020,[647477],Sr2UO4,0.14541904,I4/mmm,?,?,,,,{},{},,,,,,,ICSD 647477 not found,N/A
Sr-U-O,mp-18471,[23199],Sr2UO5,0,P2_1/c,y,y,1273,AP,,{},{},1,,"UO3, SrCO3",,10.1107/S0567740869002974,1969,,FALSE
Sr-U-O,mp-667349,[80599],Sr3U11O36,0,Pmmn,y,y,1273,,O2,{},{},1,,"SrO, U3O8",,10.1016/0022-4596(91)90215-4,1991,,FALSE
Sr-U-O,mp-3956,"[169533, 72521]",Sr3UO6,0,P2_1/c,y,y,1250,,O2,{},{},2,,"SrO, U3O8",,10.1107/S0108270192010849,1993,,FALSE
Sr-U-O,mp-29743,[50811],Sr5U3O14,4.76E-05,Pbca,y,y,1520,AP,,{},{},1,,"S4CO3, U3O8",,10.1006/jssc.1999.8320,1999,inhomogeneous,FALSE
Sr-U-O,mp-36329,[31632],SrUO4,0.000561327,R-3m,y,y,,,,{},{},,,,,10.1515/znb-1954-0815,1954,alpha phase; high temperature phase of mp-3311,TRUE
Sr-U-O,mp-3311,"[239546, 23196, 9470]",SrUO4,0,Pbcm,y,y,1173,AP,,{},{},1,,"U3O8, SrCO3",,10.1016/j.jssc.2016.01.019,2016,beta phase,FALSE
Sr-V-O,mp-19368,"[72200, 20401]",Sr2V2O7,0.001238696,P-1,y,y,,,,{},{},,,,,10.1016/0025-5408(92)90146-Q,1992,alpha phase; high temperature phase of mp-19660,FALSE
Sr-V-O,mp-19660,[10330],Sr2V2O7,0,P4_1,y,y,873,,,{},{},1,,"SrO, V2O5",,10.1016/0025-5408(92)90146-Q,1992,beta phase,FALSE
Sr-V-O,mp-541507,[80602],Sr2VO4,0.042542041,Pna2_1,y,y,1373,,Ar,{},{},1,,"SrVO3, SrO",,10.1016/0022-4596(91)90391-T,1991,,FALSE
Sr-V-O,mp-555382,[80601],Sr2VO4,0.095209986,Pna2_1,y,?,,,,{},{},,,,,10.1016/0022-4596(91)90391-T,1991,other refinement of mp-541507,FALSE
Sr-V-O,mp-18972,"[72219, 71450, 69000, 69012]",Sr2VO4,0.02549046,I4/mmm,y,n,,,,{},{},,,Sr10(VO4)6(OH)2,decomposition,10.1016/S0022-4596(05)80090-8,1990,other phase of mp-541507,FALSE
Sr-V-O,mp-22391,"[71451, 71320]",Sr3V2O7,0,I4/mmm,y,y,1673,,Ar,{},{},1,,"SrCO3, V2O3",,10.1103/PhysRevB.43.181,1990,inhomogeneous,FALSE
Sr-V-O,mp-19386,"[73258, 167701]",Sr3V2O8,0,R-3m,y,y,1123,AP,,"{""step1"": {""grind method"": [""agate mortar""], ""wet/dry"": [], ""liquid"": []}}",{},7,,"SrCO3, NH4VO3",,10.1016/j.jallcom.2010.03.066,2010,,FALSE
Sr-V-O,mp-21303,[73698],Sr4V3O10,0.046864356,I4/mmm,y,y,1673,0.0001,H2,{},{},2,,"Sr3V2O8, Sr2V2O7",,10.1016/0022-4596(92)90053-X,1992,,FALSE
Sr-V-O,mp-19509,[15273],SrV10O15,0.008587791,Cmce,y,y,1623,,H2,"{""step1"": {""grind method"": [""mixed""], ""wet/dry"": [], ""liquid"": [""acetone""]}}",{},1,,"SrV2O6, V2O3",,10.1006/jssc.1996.0135,1996,,FALSE
Sr-V-O,mp-1179552,[56413],SrV12O30,0.52505855,P2_1/m,?,?,,,,{},{},,,,,,,ICSD 56413 contain hydrogen,N/A
Sr-V-O,mp-510250,[97949],SrV13O18,0.051668044,R-3,y,y,2073,,Ar,{},{},1,,"V2O5, V, SrCO3",,10.1016/S0025-5408(02)00978-9,2003,,FALSE
Sr-V-O,mp-19038,"[80615, 65928]",SrV2O6,0.002135874,Pnma,y,y,943,,O2,{},{},1,,"SrCO3, V2O5",,10.1016/0022-4596(91)90120-7,1991,beta phase,FALSE
Sr-V-O,mp-510725,"[241177, 241180, 241186, 241183, 241181, 241176, 241178, 241184, 241182, 241179, 241187, 241185]",SrV3O7,0.002884716,Pmmn,y,y,1223,0,vacuum,{},{},1,,"Sr2V2O7, V2O3, V2O5",,10.1016/S0022-3697(99)00066-9,1999,,FALSE
Sr-V-O,mp-542104,"[72604, 77617]",SrV3O7,0.003570192,Pnma,y,?,,,,{},{},,,,,10.1107/S0108768107050550,2007,old refinement of mp-510725,FALSE
Sr-V-O,mp-772957,[408096],SrV4O10,0,P-1,y,y,923,,Ar,{},{},1,,"V2O5, V2O3, Sr2V2O7",,10.1088/0953-8984/18/7/001,2006,,FALSE
Sr-V-O,mp-18716,[90926],SrV4O9,0.017938831,P4/n,n,n,,,,{},{},,,"SrCl2, NaVO3, (CH3)4NCl",hydrothermal,10.1006/jssc.1999.8568,2000,,FALSE
Sr-V-O,mp-16924,"[261129, 93594]",SrV6O11,0.083531755,P6_3/mmc,y,y,,,,{},{},,,,,10.1088/0953-8984/13/41/319,2001,"high temperature phase of P63mc SrV6O11, which can be synthesized via solid state synthesis",FALSE
Sr-V-O,mp-555227,[71868],SrV6O11,0.466545358,P6_3/mmc,y,?,,,,{},{},,,,,10.1107/S0108270110046299,2010,old refinement of P63mc SrV6O11,FALSE
Sr-V-O,mp-5206,[98575],SrV6O15,0.013654891,P2_1/c,y,y,923,0,vacuum,{},{},1,,"SrV2O6, V2O5, V2O3",,10.1016/S1293-2558(03)00045-1,2003,,FALSE
Sr-V-O,mp-18717,"[108826, 96291, 88982]",SrVO3,0.038067433,Pm-3m,y,y,1273,,"air,H2",{},{},2,,"SrCO3, V2O5",,10.1016/S0925-8388(02)01349-X,2003,,FALSE
Sr-W-O,mp-772676,[239710],Sr2WO5,0.005273479,Pnma,y,y,1373,AP,,{},{},1,,"Sr(NO3)2, WO3",,10.1002/zaac.201700334,2017,,FALSE
Sr-W-O,mp-1204662,[247338],Sr3WO6,0.013495765,P1,y,y,1523,AP,,{},"{""step1"": {""cool rate"": [], ""cool time"": [], ""cool medium"": [], ""cool type"": [""furnace cool""], ""end temperature"": [""RT""], ""remark"": []}}",1,,"SrCO3, WO3",,10.1021/ic100598v,2010,,FALSE
Sr-W-O,mp-1203086,[247337],Sr3WO6,0.013458223,Cc,y,y,,,,{},{},,,,,10.1021/ic100598v,2010,high temperature phase of mp-1204662,FALSE
Sr-W-O,mp-19163,"[193492, 291536, 195219, 184047, 155425, 155745, 43219, 23701, 155793, 184046]",SrWO4,0,I4_1/a,y,y,1373,AP,,"{""step1"": {""grind method"": [""agate mortar""], ""wet/dry"": [], ""liquid"": []}}",{},2,,"SrCO3, WO3",,10.1016/j.jssc.2015.04.004,2015,ICSD 155793 not found,FALSE
Sr-Y-O,mp-17275,[25701],SrY2O4,0.004161298,Pnma,y,y,1923,AP,,"{""step1"": {""grind method"": [""vibration milling""], ""wet/dry"": [], ""liquid"": []}}",{},1,,"SrCO3, Y2O3",,10.1007/s10973-015-4950-0,2016,,FALSE
Sr-Yb-O,mp-20248,"[246553, 15123]",SrYb2O4,0.188183623,Pnma,y,y,1773,AP,,"{""step1"": {""grind method"": [""agate mortar""], ""wet/dry"": [], ""liquid"": []}}",{},1,,"Yb2O3, SrCO3",,10.1103/PhysRevB.71.144414,2004,,FALSE
Sr-Zn-O,mp-5637,"[15913, 25556]",SrZnO2,0,Pnma,y,y,1473,AP,,{},{},1,,"ZnO, SrCO3",,10.1016/j.matlet.2004.12.023,2005,,FALSE
Sr-Zn-O,mp-1078385,[39327],SrZnO5,0.444511377,P1,?,?,,,,{},{},,,,,,,ICSD 39327 contain hydrogen,N/A
Sr-Zr-O,mp-27690,[23731],Sr3Zr2O7,0.038823955,I4/mmm,y,y,1873,AP,,"{""step1"": {""grind method"": [""agate mortar""], ""wet/dry"": [], ""liquid"": []}}",{},1,,"SrCO3, ZrO2",,10.1007/BF00724900,1982,,FALSE
Sr-Zr-O,mp-613402,[33666],SrZrO3,2.51724068,Pm-3m,y,?,,,,{},{},,,,,,,might be old refinement of mp-4387,N/A
Sr-Zr-O,mp-5076,"[1522, 89362, 89361, 89358, 89357, 188451, 89360, 290620, 89359, 89356]",SrZrO3,0.01260116,I4/mcm,y,y,,,,{},{},,,,,10.1103/PhysRevB.59.4023,1999,"high temperature phase of mp-4387; ICSD 188451, 290620 not found",FALSE
Sr-Zr-O,mp-1080575,[188453],SrZrO3,0.00579218,Imma,y,?,,,,{},{},,,,,10.1016/j.jssc.2012.07.005,2012,modelling of SrZrO3,FALSE
Sr-Zr-O,mp-3626,"[188452, 89355]",SrZrO3,0.008195152,Cmcm,y,y,,,,{},{},,,,,10.1103/PhysRevB.59.4023,1999,high temperature phase of mp-4387,FALSE
Sr-Zr-O,mp-1020622,[188450],SrZrO3,0.019768853,P4/mbm,y,?,,,,{},{},,,,,10.1016/j.jssc.2012.07.005,2012,modelling of SrZrO3,FALSE
Sr-Zr-O,mp-1068742,[188449],SrZrO3,0.048364574,P4mm,y,?,,,,{},{},,,,,10.1016/j.jssc.2012.07.005,2012,modelling of SrZrO3,FALSE
Sr-Zr-O,mp-3323,"[89364, 187481, 188448, 89365, 89363, 290618, 27046, 29153, 89366, 191829]",SrZrO3,0.055083228,Pm-3m,y,y,,,,{},{},,,,,10.1103/PhysRevB.59.4023,1999,"high temperature phase of mp-4387; might be old refinement of mp-4387; ICSD 187481, 188448, 290618, 191829 not found",FALSE
Sr-Zr-O,mp-557203,[41083],SrZrO3,0.054729959,P2_13,y,y,,,,{},{},,,,,10.1016/0022-4596(92)90200-F,1992,other phase of mp-4387,FALSE
Sr-Zr-O,mp-4387,"[650, 173398, 184465, 89354, 188454, 159454]",SrZrO3,0,Pnma,y,y,1923,AP,,"{""step1"": {""grind method"": [""agate mortar""], ""wet/dry"": [], ""liquid"": []}, ""step2"": {""grind method"": [""wet milling""], ""wet/dry"": [""wet""], ""liquid"": []}}",{},4,,"SrCO3, ZrO2",,10.1016/j.jallcom.2012.03.047,2012,"ICSD 159454, 188454 not found",FALSE
Ta-Ag-O,mp-1203398,[180734],Ta4Ag2O11,0.010798991,R-3c,y,y,1373,AP,,"{""step1"": {""grind method"": [""agate mortar""], ""wet/dry"": [], ""liquid"": [""acetone""]}}","{""step1"": {""cool rate"": [], ""cool time"": [], ""cool medium"": [], ""cool type"": [""furnace cool""], ""end temperature"": [""RT""], ""remark"": []}}",1,,"Ag2O, Ta2O5",,10.1039/C0JM02540B,2011,,FALSE
Ta-Ag-O,mp-9890,[40831],TaAgO3,0.025800831,R-3c,y,y,1373,AP,,"{""step1"": {""grind method"": [""agate mortar""], ""wet/dry"": [], ""liquid"": []}}",{},1,,"Ag, Ta2O5",,10.1016/j.ijhydene.2015.01.046,2015,,FALSE
Ta-Al-O,mp-1190518,[67673],Ta3Al4O14,0.054771601,P3,?,?,,,,{},{},,,,,,,ICSD 67673 contain hydrogen,N/A
Ta-Al-O,mp-14333,[33885],TaAlO4,0,C2/m,y,y,1773,AP,,"{""step1"": {""grind method"": [""ball milling""], ""wet/dry"": [], ""liquid"": [""ethanol""]}}",{},1,,"Al2O3, Ta2O5",,10.1016/j.ceramint.2018.12.135,2019,,FALSE
Ta-Al-O,mp-8898,[67676],TaAlO4,0.019977156,Pbcn,y,n,,,,{},{},,,,natural mineral,pubs.geoscienceworld.org/canmin/article/30/3/653/12383/the-crystal-structure-of-alumotantite-its-relation,1992,other phase of mp-14333,FALSE
Ta-Bi-O,mp-29680,[50601],Ta2Bi4O11,0,P-1,y,y,1173,,,{},"{""step1"": {""cool rate"": [], ""cool time"": [], ""cool medium"": [], ""cool type"": [""quench""], ""end temperature"": [""RT""], ""remark"": []}}",2,,"Bi2O3, Ta2O5",,10.1006/jssc.1998.7980,1999,,FALSE
Ta-Bi-O,mp-1200544,[415141],Ta3Bi4O14,0.040035626,C2/c,?,?,,,,{},{},,,,,,,different stoichiometry: LiBi4Ta3O14,N/A
Ta-Bi-O,mp-1196419,[280092],Ta3Bi7O18,0.002287054,P1,y,y,1173,,,{},"{""step1"": {""cool rate"": [], ""cool time"": [], ""cool medium"": [], ""cool type"": [""quench""], ""end temperature"": [""RT""], ""remark"": []}}",1,,"Bi2O3, Ta2O5",,10.1107/S0108768198011148,1999,,FALSE
Ta-Bi-O,mp-581875,[280093],Ta3Bi7O18,0.00367667,C2/m,y,?,,,,{},{},,,,,10.1107/S0108768198011148,1999,other refinement of mp-1196419,FALSE
Ta-Bi-O,mp-1195166,[251951],Ta7BiO19,0.001374893,P-6c2,y,y,1273,AP,,"{""step1"": {""grind method"": [""pestle and mortar""], ""wet/dry"": [], ""liquid"": []}}",{},1,,"Ta2O5, Bi2O3",,10.1016/j.jssc.2015.06.019,2015,,FALSE
Ta-Bi-O,mp-30900,[97423],TaBiO4,0.00564258,Pnna,y,y,1173,AP,,"{""step1"": {""grind method"": [""agate mortar""], ""wet/dry"": [], ""liquid"": [""acetone""]}}",{},2,,"Bi2O3, Ta2O5",,10.1016/S0022-4596(03)00225-1,2003,,FALSE
Ta-Bi-O,mp-560261,[415849],TaBiO4,0,P-1,y,y,,,,{},{},,,,,10.1016/j.jssc.2006.08.032,2006,high temperature phase of mp-30900,FALSE