system,mp_id,icsd_ids,composition,e_above_hull,Spacegroup Number,solid_state_synthesized_composition,solid_state_synthesized_structure,sss_highest_temperature(K),sss_pressure(GPa),sss_atmosphere,sss_mixing_condition,sss_cooling_condition,sss_heating_step,single_crystal,sss_precursor,other_synthesis_method,reference,reference_year,comment,google_translate
Zn-Bi-O,mp-28402,[62479],ZnBi12O20,0.061524334,I23,y,y,973,AP,,"{""step1"": {""grind method"": [""mixed""], ""wet/dry"": [], ""liquid"": [""ethanol""]}}",{},1,,"Bi2O3, ZnO",,10.1016/j.cplett.2005.05.051,2005,,FALSE
Zn-Cr-O,mp-19410,"[196119, 290592, 290591, 171898, 171892, 171890, 171893, 167365, 171889, 290593, 50047, 290018, 171896, 290590, 171891, 171899, 171895, 171897, 171894, 24495]",ZnCr2O4,0,Fd-3m,y,y,1573,AP,,{},"{""step1"": {""cool rate"": [{""value"": ""25"", ""unit"": ""C/h""}], ""cool time"": [], ""cool medium"": [], ""cool type"": [], ""end temperature"": [""RT""], ""remark"": []}}",1,,"Cr2O3, ZnO",,10.2138/am.2005.1755,2005,excess ZnO,FALSE
Zn-Fe-O,mp-19313,"[91931, 188045, 167359, 91929, 91827, 28511, 91932, 76981, 85869, 91933, 85867, 91943, 188201, 91940, 91937, 633044, 166205, 91938, 37430, 91939, 91934, 85866, 91935, 76178, 91936, 56122, 24496, 85868, 91942, 180648, 91941, 91930]",ZnFe2O4,0,Fd-3m,y,y,1673,AP,,{},"{""step1"": {""cool rate"": [{""value"": ""15"", ""unit"": ""C/h""}], ""cool time"": [], ""cool medium"": [], ""cool type"": [], ""end temperature"": [""RT""], ""remark"": []}}",2,,"ZnO, Fe2O3",,10.1007/s002690000117,2000,,FALSE
Zn-Ga-O,mp-5794,"[81106, 81108, 81112, 290017, 81105, 81113, 81107, 290667, 9394, 81111, 81109, 81110, 187290]",ZnGa2O4,0,Fd-3m,y,y,1573,AP,,{},{},2,,"ZnO, Ga2O3",,10.1063/1.110937,1994,,FALSE
Zn-Ge-O,mp-27843,[27103],Zn2Ge3O8,0.002127737,P4_332,?,?,,,,{},{},,,,,www.persee.fr/doc/bulmi_0037-9328_1964_num_87_4_5771,1964,translation issues,FALSE
Zn-Ge-O,mp-5909,"[68382, 16173]",Zn2GeO4,0,R-3,y,y,1573,AP,,"{""step1"": {""grind method"": [""agate mortar""], ""wet/dry"": [], ""liquid"": []}}",{},1,,"ZnO, GeO2",,10.1149/1.2720769,2007,,FALSE
Zn-Ge-O,mp-8285,[33722],ZnGeO3,0.035218031,R-3,y,y,1473,10,,{},{},1,,"ZnO, GeO2",,10.1007/s00269-005-0034-1,2005,,FALSE
Zn-Ge-O,mp-1020631,[183725],ZnGeO3,0.107317338,R3c,y,y,,,,{},{},,,,,10.1016/j.jallcom.2011.11.017,2012,"modelling of LiNbO3-type ZnGeO3, which is a high temperature/pressure phase of mp-8285",FALSE
Zn-In-O,mp-756297,[290668],ZnIn2O4,0.029523168,Fd-3m,?,?,,,,{},{},,,,,,,ICSD 290668 contain hydrogen,N/A
Zn-Mo-O,mp-19216,"[280130, 248083, 36174]",Zn2Mo3O8,0.084931463,P6_3mc,y,y,1423,0,vacuum,{},{},1,,"ZnO, MoO3, Mo",,10.1021/ja01577a021,1957,,FALSE
Zn-Mo-O,mp-29461,[401828],Zn3Mo2O9,0.009276102,P2_1/m,y,y,1173,0,vacuum,{},{},3,,"ZnO, Mo, MoO3",,10.1002/zaac.19966220728,1996,,TRUE
Zn-Mo-O,mp-29325,[201981],ZnMo8O10,0.81332988,I4_1md,y,y,1643,,,{},{},1,,"ZnO, MoO3, Mo",,10.1016/0022-4596(86)90078-2,1986,,FALSE
Zn-Mo-O,mp-16882,"[411378, 17030]",ZnMoO4,0,P-1,y,y,873,AP,,{},{},1,,"ZnO, MoO3",,10.1016/j.jallcom.2011.02.155,2011,alpha phase,FALSE
Zn-Mo-O,mp-1095420,"[195515, 236416, 236417]",ZnMoO4,0.018754664,P2/c,y,y,,,,{},{},,,,,10.1016/j.ceramint.2015.08.094,2015,beta phase; high temperature phase of mp-16882,FALSE
Zn-Pb-O,mp-1078329,[196158],ZnPbO3,0.02254648,R3c,y,y,1473,7.5,,{},{},1,,"ZnO, PbO2, KClO3",,10.1021/acs.inorgchem.5b02049,2015,,FALSE
Zn-Pd-O,mp-22257,[30076],Zn2PdO4,0.278000866,Fd-3m,y,y,1193,7,,{},"{""step1"": {""cool rate"": [], ""cool time"": [], ""cool medium"": [], ""cool type"": [""quench""], ""end temperature"": [""RT""], ""remark"": []}}",1,,"ZnO, PdO, KClO3",,10.1016/0025-5408(76)90058-1,1976,,TRUE
Zn-Pt-O,mp-8207,[35339],ZnPt3O6,0,Cmmm,y,y,1123,0.3,Ar,{},{},1,,"ZnO, PtO2",,10.1107/S010876818300230X,1983,,FALSE
Zn-Re-O,mp-1103868,[79419],ZnRe2O12,0.711139092,P-1,?,?,,,,{},{},,,,,,,ICSD 79419 contain hydrogen,N/A
Zn-Re-O,mp-10326,[51017],ZnRe2O8,0,P-3,n,n,,,,{},{},,,,decomposition,10.1006/jssc.1998.7806,1998,,FALSE
Zn-Rh-O,mp-5146,"[109298, 647372]",ZnRh2O4,0,Fd-3m,y,y,1273,AP,,"{""step1"": {""grind method"": [""wet ball milling""], ""wet/dry"": [""wet""], ""liquid"": []}}",{},1,,"ZnO2, Rh2O3",,10.1016/j.ijhydene.2011.09.098,2012,,FALSE
Zn-Sb-O,mp-5388,"[86486, 31996, 41221, 86488, 36252, 41222, 41224, 41223, 647391]",ZnSb2O4,0.013096706,P4_2/mbc,y,y,873,,N2,{},{},1,,"Sb2O3, ZnO",,10.1016/0022-4596(82)90210-9,1982,,TRUE
Zn-Sb-O,mp-3188,"[96612, 30409]",ZnSb2O6,0,P4_2/mnm,y,y,1373,AP,,"{""step1"": {""grind method"": [""mortar""], ""wet/dry"": [], ""liquid"": []}}",{},2,,"ZnO, Sb2O3",,10.2109/jcersj.108.1257_435,2000,,FALSE
Zn-Se-O,mp-1195169,[429801],Zn3Se4O14,0.33466484,P2_1/c,?,?,,,,{},{},,,,,,,"ICSD 429801 contain hydrogen; different stoichiometry, has Li",N/A
Zn-Se-O,mp-18373,[2355],ZnSe2O5,0,Pbcn,y,y,623,0,vacuum,{},{},1,,"SeO2, ZnO",,10.1107/S0567740874008272,1974,a bit questionable,TRUE
Zn-Se-O,mp-4682,"[51856, 163221, 499]",ZnSeO3,0.062126545,Pnma,y,y,1173,7,,{},"{""step1"": {""cool rate"": [], ""cool time"": [], ""cool medium"": [], ""cool type"": [""quench""], ""end temperature"": [""RT""], ""remark"": []}}",1,,"SeO2, ZnO",,10.1088/1742-6596/121/3/032004,2008,,FALSE
Zn-Se-O,mp-5338,"[61341, 29500]",ZnSeO3,0,Pbca,y,n,,,,{},{},,,"ZnO, H2SeO3",solution method,10.1524/zkri.1986.174.14.291,1985,other phase of mp-4682; beta phase,FALSE
Zn-Sn-O,mp-1103830,[187039],Zn2SnO4,0.116443541,Fd-3m,y,y,,,,{},{},,,,,10.1016/j.commatsci.2011.07.046,2012,"modelling of cubic spinel Zn2SnO4, which have been synthesized via solid state synthesis: 10.1016/S0025-5408(01)00621-3",FALSE
Zn-Sn-O,mp-14628,[50404],ZnSnO3,0.054896506,R-3,y,n,,,,{},{},,,"Li2SnO3, ZnCl2",ion exchange,10.1016/S0167-2738(97)00507-9,1998,other phase of mp-13334,FALSE
Zn-Sn-O,mp-13334,"[165122, 245943]",ZnSnO3,0.041387337,R3c,y,y,1273,7,,{},"{""step1"": {""cool rate"": [], ""cool time"": [], ""cool medium"": [], ""cool type"": [""quench""], ""end temperature"": [""RT""], ""remark"": []}}",1,,"ZnO, SnO2",,10.1021/ja801843v,2008,,FALSE
Zn-Te-O,mp-3502,"[50705, 16784]",Zn2Te3O8,0,C2/c,y,y,858,AP,,"{""step1"": {""grind method"": [""ball milling""], ""wet/dry"": [], ""liquid"": [""water""]}}",{},2,,"ZnO, TeO2",,10.1111/j.1551-2916.2007.01673.x,2007,,FALSE
Zn-Te-O,mp-13199,[245056],Zn3TeO6,0,C2/c,y,y,1023,AP,,{},"{""step1"": {""cool rate"": [], ""cool time"": [], ""cool medium"": [], ""cool type"": [], ""end temperature"": [""RT""], ""remark"": []}}",1,,"TeO2, ZnO",,10.15541/jim20190606,2020,doped: Mn 10%,FALSE
Zn-Te-O,mp-16819,[16937],ZnTeO3,0.0007125,Pbca,?,?,,,,{},{},,,,,10.1016/0022-3093(92)90020-K,1992,"insufficient information: mentioned the use of solid state reaction, but no synthesis information",FALSE
Zn-W-O,mp-1205368,[162238],ZnWO4,0.420679191,Cmce,y,?,,,,{},{},,,,,10.1103/PhysRevB.78.054116,2008,modelling of high pressure phase ZnWO4,FALSE
Zn-W-O,mp-1205356,[162237],ZnWO4,0.182354087,I4_1/a,y,?,,,,{},{},,,,,10.1103/PhysRevB.78.054116,2008,modelling of high pressure phase ZnWO4,FALSE
Zn-W-O,mp-18918,"[84540, 186161, 166210, 166212, 156483, 162235, 162681, 166215, 166214, 186162, 166211, 156482, 166213, 162682, 162683, 166216, 162234, 166208, 166209, 162680, 162236, 22348, 162679, 87933, 162678]",ZnWO4,0,P2/c,y,y,1273,AP,,{},{},1,,"ZnO, WO3",,10.1002/pssa.200622331,2007,,FALSE
Zr-Ge-O,mp-27888,[29263],Zr3GeO8,0.003475476,I-42m,n,n,,,,{},{},,,"ZrO2, GeO2",from melt,10.1134/S0020168512060209,2012,,FALSE
Zr-Ge-O,mp-8042,[29262],ZrGeO4,0,I4_1/a,n,n,,,,{},{},,,"ZrO2, GeO2",from melt,10.1134/S0020168512060209,2012,,FALSE
Zr-Mo-O,mp-1204294,[9469],ZrMo2O11,0.475486861,I4_1cd,?,?,,,,{},{},,,,,,,ICSD 9469 contain hydrogen,N/A
Zr-Mo-O,mp-704604,"[164733, 280427, 280425, 280426, 280428, 280429, 65512, 280430, 59997, 164732, 280432, 280431]",ZrMo2O8,0.008874535,P-31c,y,y,973,AP,,"{""step1"": {""grind method"": [""agate mortar""], ""wet/dry"": [], ""liquid"": []}}",{},1,,"ZrO2, MoO3",,10.1021/jp901897s,2009,alpha phase,FALSE
Zr-Mo-O,mp-636731,[98167],ZrMo2O8,0.000518741,Pmn2_1,y,n,,,,{},{},,,ZrMo2O7(OH)2·2H2O,decomposition,10.1021/cm034397s,2003,other phase of mp-704604,FALSE
Zr-Mo-O,mp-1095622,"[280434, 280438, 280433, 280436, 280435, 280437]",ZrMo2O8,0.013810034,C2/m,y,y,,,,{},{},,,,,10.1107/S0108768100013215,2001,high pressure phase of mp-704604,FALSE
Zr-Mo-O,mp-510456,[59999],ZrMo2O8,0,P-3m1,y,y,,,,{},{},,,,,10.1107/S0108768103025138,2004,high temperature phase of mp-704604,FALSE
Zr-Mo-O,mp-559825,"[65722, 420668, 169483]",ZrMo2O8,0.024029375,C2/c,y,y,873,AP,,{},{},1,,"ZrO2, MoO3",,10.1007/s12034-009-0048-2,2009,"other phase of mp-704604, beta phase",FALSE
Zr-Ni-O,mp-18927,[71964],Zr3NiO,0.479347794,Cmcm,n,n,,,,{},{},,,"Zr, Ni, Si",arc melting,10.1016/0925-8388(92)90614-F,1992,,FALSE
Zr-Ni-O,mp-21602,[74996],Zr4Ni2O,0.678245628,Fd-3m,n,n,,,,{},{},,,"NaClO4, Zr, Ni",arc melting,10.1016/0925-8388(94)90079-5,1994,,FALSE
Zr-Pb-O,mp-20337,[39607],ZrPbO3,0.032540724,Amm2,y,?,,,,{},{},,,,,10.1088/0953-8984/8/11/007,1996,EFI phase of mp-542903,FALSE
Zr-Pb-O,mp-542903,"[59405, 150699, 59400, 160460, 162380, 59399, 280469, 153712, 162049, 84560, 87896, 84559, 86443, 86153, 87586, 87587, 59402, 150698, 162381, 51574, 59403, 193183, 59406]",ZrPbO3,0.025485395,Pbam,y,y,1123,AP,,"{""step1"": {""grind method"": [""ball milling""], ""wet/dry"": [], ""liquid"": [""deionized water""]}}",{},1,,"PbO, ZrO2",,10.1107/S0108768198003802,1998,,FALSE
Zr-Pb-O,mp-647557,[31154],ZrPbO3,0.03004715,Pba2,y,?,,,,{},{},,,,,10.1143/JPSJ.51.3583,1982,old refinement of mp-542903,FALSE
Zr-Pb-O,mp-1068577,"[290878, 262104, 290879, 290873, 290872, 290876, 290875, 290877, 262105, 290874]",ZrPbO3,0.082114848,Pm-3m,y,y,,,,{},{},,,,,10.1088/0953-8984/13/7/309,2001,high temperature phase of mp-542903,FALSE
Zr-Pd-O,mp-22479,"[97386, 97387]",Zr4Pd2O,0,Fd-3m,n,n,,,,{},{},,,"Zr, ZrO2, Pd",arc melting,10.1016/S0925-8388(03)00446-8,2003,,FALSE
Zr-Te-O,mp-4759,"[409713, 9079]",ZrTe3O8,0,Ia-3,y,y,925,AP,,{},{},1,,"ZrO2, WO3",,10.1016/0022-3115(94)90345-X,1994,,FALSE
Zr-V-O,mp-504834,"[165077, 38407]",Zr3V3O,0.620285894,Fd-3m,n,n,,,,{},{},,,,arc melting,10.1063/1.446339,1983,,FALSE
Zr-V-O,mp-554326,"[84885, 84883, 84886, 84884]",ZrV2O7,0,Pa-3,y,y,1023,AP,,"{""step1"": {""grind method"": [""agate mortar""], ""wet/dry"": [], ""liquid"": []}}",{},1,,"ZrOCl2·8H2O, NH4VO3",,10.1021/cm00050a028,1995,,FALSE
Zr-W-O,mp-18778,"[83267, 56565, 80117, 246963, 262061, 280117, 168258]",ZrW2O8,0.073754605,P2_13,y,y,1473,0,vacuum,{},{},2,,"ZrO2, WO3",,10.1107/S0108270195001545,1995,,FALSE
Zr-W-O,mp-556713,[56566],ZrW2O8,0.05549029,P2_12_12_1,y,y,,,,{},{},,,,,10.1103/PhysRevB.59.215,1999,high pressure phase of mp-18778,FALSE