system,mp_id,icsd_ids,composition,e_above_hull,Spacegroup Number,solid_state_synthesized_composition,solid_state_synthesized_structure,sss_highest_temperature(K),sss_pressure(GPa),sss_atmosphere,sss_mixing_condition,sss_cooling_condition,sss_heating_step,single_crystal,sss_precursor,other_synthesis_method,reference,reference_year,comment,google_translate
Ca-Mo-O,mp-19330,"[194078, 193793, 194079, 60555, 60554, 22351, 183447, 60553, 60558, 417513, 60556, 23699, 183446, 62219, 60557, 77334, 60552]",CaMoO4,0,I4_1/a,y,y,1273,AP,,{},{},1,,"CaO, MoO3",,10.3891/acta.chem.scand.41a-0358,1987,,FALSE
Ca-Nb-O,mp-560040,[6117],Ca2Nb2O7,0.000110027,Pna2_1,y,y,1773,AP,,{},{},1,y,"CaO, Nb2O5",,10.1016/0022-1902(74)80709-8,1974,,TRUE
Ca-Nb-O,mp-13979,[26010],Ca2Nb2O7,0,P2_1,y,y,1273,AP,,{},{},2,,"CaCO3, Nb2O5",,10.1016/j.tca.2008.06.010,2008,other phase of mp-560040,FALSE
Ca-Nb-O,mp-4155,"[72206, 22411]",Ca2Nb2O7,0.041469383,Fd-3m,y,n,,,,{},{},,,"Ca(NO3)2·4H2O, EtOH, C10H25NbO5, KOH, H2O",hydrothermal,10.1016/0025-5408(92)90199-A,1992,other phase of mp-560040,FALSE
Ca-Nb-O,mp-31016,[51311],Ca4Nb2O9,0,P2_1/c,y,y,1698,AP,,{},{},3,,"CaCO3, Nb2O5",,10.1006/jssc.2000.8971,2001,,FALSE
Ca-Nb-O,mp-555924,[415450],Ca5Nb5O17,0.008722182,P2_1/c,n,n,,,,{},{},,,"CaCO3, Nb2O5, Nb",from melt,10.1016/j.jssc.2005.07.007,2005,,FALSE
Ca-Nb-O,mp-29792,[88779],CaNb2O4,0,Pbcm,n,n,,,,{},{},,,"RbNbO3, CaNb2O6, CaCl2·2H2O",reduction,10.1006/jssc.1999.8445,1999,,FALSE
Ca-Nb-O,mp-17101,[15208],CaNb2O6,0,Pbcn,y,y,1473,AP,,{},{},2,,CaCO3,,10.1002/pssa.2211350229,1993,,FALSE
Ca-Nb-O,mp-4957,"[51202, 85569]",CaNbO3,0.058927917,Pnma,y,y,1773,,Ar,{},"{""step1"": {""cool rate"": [{""value"": ""3000"", ""unit"": ""C/h""}], ""cool time"": [], ""cool medium"": [], ""cool type"": [], ""end temperature"": [""RT""], ""remark"": []}}",1,,"5CaO·2Nb2O5, Nb",,10.1006/jssc.1998.8007,1998,,FALSE
Ca-Ni-O,mp-18718,[40470],CaNi4O8,0.004738088,R-3m,n,n,,,,{},{},,,,ion exchange,"Kristallografiya 29, 450 (1984)",1984,from abstract,FALSE
Ca-Os-O,mp-2923,"[97091, 97093, 97094, 97092]",Ca2Os2O7,0,Imma,y,y,1273,0,vacuum,{},{},2,,"CaO, OsO4, Os",,10.1039/B201410F,2002,,FALSE
Ca-Pb-O,mp-21137,[36629],Ca2PbO4,0,Pbam,y,y,1123,AP,,{},{},1,,"CaCO3, PbO2",,10.1021/cm980629p,1999,,FALSE
Ca-Pb-O,mp-20273,[100789],Ca3PbO,0,Pm-3m,y,y,1123,0,vacuum,{},"{""step1"": {""cool rate"": [], ""cool time"": [], ""cool medium"": [], ""cool type"": [""quench""], ""end temperature"": [""RT""], ""remark"": []}}",1,,"Ca, PbO",,10.1063/1.4952393,2016,,FALSE
Ca-Pb-O,mp-20079,[87825],CaPbO3,0.002414085,Pnma,y,y,1473,6.5,,{},{},1,,Ca2PbO4,,10.1021/cm980629p,1999,,FALSE
Ca-Pd-O,mp-10299,[88134],Ca4PdO6,0,R-3c,y,y,1323,10,,{},"{""step1"": {""cool rate"": [], ""cool time"": [{""value"": "" a few"", ""unit"": ""second""}], ""cool medium"": [], ""cool type"": [""quench""], ""end temperature"": [""RT""], ""remark"": []}}",1,,"CaO, PdO, KClO3",,10.1016/S0925-8388(99)00008-0,1999,,FALSE
Ca-Pd-O,mp-3315,"[186819, 16538, 27502]",CaPd3O4,0,Pm-3n,y,y,1173,AP,,{},{},2,,"CaCO3, PdO",,10.1147/rd.82.0185,1964,inhomogeneous; excess CaCO3,FALSE
Ca-Pt-O,mp-8710,[65412],Ca2Pt3O8,0,R-3m,n,n,,,,{},{},,,CaPt(OH)6,decomposition,10.1016/0022-4596(87)90367-7,1987,,FALSE
Ca-Pt-O,mp-558172,[6159],CaPt2O4,0.097652324,P4_2/mmc,?,?,,,,{},{},,,,,10.1021/ic50131a021,1974,insufficent information: uncertain synthesis method,FALSE
Ca-Pt-O,mp-4784,"[160328, 173278]",CaPtO3,0.010505496,Cmcm,y,y,1273,7,,{},"{""step1"": {""cool rate"": [], ""cool time"": [], ""cool medium"": [], ""cool type"": [""quench""], ""end temperature"": [""RT""], ""remark"": []}}",1,,"CaO, PtO2",,10.1021/ic701851e,2008,,FALSE
Ca-Re-O,mp-29532,[380153],Ca11Re4O24,0.000222345,I4_1,n,n,,,,{},{},,,Ca5Re2O12,decomposition,10.1515/znb-1998-0108,1997,,FALSE
Ca-Re-O,mp-9457,[84791],Ca3ReO6,0,P2_1/c,y,y,1073,0,vacuum,{},"{""step1"": {""cool rate"": [], ""cool time"": [], ""cool medium"": [], ""cool type"": [""furnace cool""], ""end temperature"": [""RT""], ""remark"": []}}",1,,"CaO, ReO3",,10.1006/jssc.1997.7384,1997,,FALSE
Ca-Re-O,mp-558966,[72868],Ca5Re2O12,0,R-3c,y,y,1273,,"air,vacuum",{},{},2,,"Ca(ReO4)2·2H2O, CaO",,10.1016/0022-4596(92)90299-B,1992,,FALSE
Ca-Re-O,mp-1199701,[20777],CaRe2O10,0.191335713,Cc,?,?,,,,{},{},,,,,,,ICSD 20777 contain hydrogen,N/A
Ca-Re-O,mp-1198612,"[41049, 40397]",CaRe2O10,0.34028043,C2/c,?,?,,,,{},{},,,,,,,"ICSD 41049, 40397 contain hydrogen",N/A
Ca-Rh-O,mp-17998,[170597],CaRh2O4,0,Pnma,y,y,1773,6,,{},"{""step1"": {""cool rate"": [], ""cool time"": [], ""cool medium"": [], ""cool type"": [""quench""], ""end temperature"": [""RT""], ""remark"": []}}",1,,"CaO, Rh2O3, KClO4",,10.1021/cm0483846,2005,,FALSE
Ca-Rh-O,mp-1181917,[164775],CaRhO3,0.020674304,Pnma,y,y,2173,6,,{},{},2,,"CaO, Rh2O3, KClO4",,10.1007/s00269-009-0292-4,2009,,FALSE
Ca-Rh-O,mp-1078659,[164774],CaRhO3,0,Cmcm,y,y,,,,{},{},,,,,10.1007/s00269-009-0292-4,2009,high temperature/pressure phase of mp-1181917,FALSE
Ca-Ru-O,mp-554638,[156409],Ca2Ru2O7,0,Fd-3m,y,y,1223,4,,{},{},1,,"CaO, RuO2, oxidizer",,10.1103/PhysRevB.82.094413,2010,,FALSE
Ca-Ru-O,mp-21466,"[291034, 291033, 153801, 94244, 153799, 153803, 56581, 56583, 56582, 153800, 153802, 261486, 94243]",Ca2RuO4,0.024157455,Pbca,y,y,1633,,"Ar,O2",{},{},2,,"CaCO3, RuO2",,10.1016/S0921-4534(97)00545-5,1997,,FALSE
Ca-Ru-O,mp-4208,"[153805, 153804]",Ca2RuO4,0.037625404,Cmce,y,y,,,,{},{},,,,,10.1103/PhysRevB.72.094104,2005,high pressure phase of mp-21466,FALSE
Ca-Ru-O,mp-3258,"[153772, 153770, 153775, 153769, 153771, 153776, 153773, 153774]",Ca3Ru2O7,0.013949079,Cmc2_1,y,y,1700,,O2,{},{},1,,"CaO, RuO2",,10.1149/1.1557082,2003,,FALSE
Ca-Ru-O,mp-20947,"[166221, 190466, 82972, 190465, 82974, 82973, 69359, 82975, 190467, 162776, 82970, 51291, 165791, 56698, 82971, 75568, 82976, 99451, 165689, 157114]",CaRuO3,0,Pnma,y,y,1473,AP,,{},{},2,,"CaCO3, RuO2",,10.1016/0025-5408(94)90151-1,1994,,FALSE
Ca-Sb-O,mp-16280,"[77063, 166282, 261535]",Ca2Sb2O7,0,Imma,y,y,1373,AP,,{},"{""step1"": {""cool rate"": [], ""cool time"": [], ""cool medium"": [], ""cool type"": [""slow cooling""], ""end temperature"": [""RT""], ""remark"": []}}",1,,"CaCO3, Sb2O3",,10.1016/j.solidstatesciences.2011.01.013,2011,,FALSE
Ca-Sb-O,mp-1190115,[238545],Ca2Sb2O7,0.029266964,Fd-3m,y,?,,,,{},{},,,,,10.1180/minmag.2013.077.7.12,2013,,FALSE
Ca-Sb-O,mp-14145,[24245],Ca2Sb2O7,0.442944295,Fd-3m,y,?,,,,{},{},,,,,,,might be old refinement of mp-1190115,N/A
Ca-Sb-O,mp-13660,[16353],Ca4Sb2O,0,I4/mmm,y,y,1723,,Ar,{},"{""step1"": {""cool rate"": [{""value"": ""20"", ""unit"": ""C/h""}], ""cool time"": [], ""cool medium"": [], ""cool type"": [], ""end temperature"": [{""value"": ""1100"", ""unit"": ""C""}], ""remark"": []}, ""step2"": {""cool rate"": [{""value"": ""50"", ""unit"": ""C/h""}], ""cool time"": [], ""cool medium"": [], ""cool type"": [], ""end temperature"": [""RT""], ""remark"": []}}",3,,"Ca, Sb2O3, Sb",,10.1515/znb-1980-1206,1980,,FALSE
Ca-Sb-O,mp-9125,[74539],CaSb2O6,0,P-31m,y,y,1373,AP,,{},{},1,,"Sb2O3, CaCO3",,10.1016/S1010-6030(02)00076-X,2002,,FALSE
Ca-Sc-O,mp-4056,"[26074, 16886]",CaSc2O4,0,Pnma,y,y,1773,AP,,{},{},1,,"CaCO3, Sc2O3",,10.1002/er.5376,2020,doped: Eu 1%,FALSE
Ca-Se-O,mp-28535,[54155],Ca2Se3O8,0,P-1,n,n,,,,{},{},,,"SeO2, CaCO3, H2O",hydrothermal,10.1007/PL00000101,1998,,FALSE
Ca-Se-O,mp-27845,[27209],CaSe2O5,0,Pbca,y,y,623,,,{},{},1,,"CaO, SeO2",,10.1107/S0567740882005494,1982,,TRUE
Ca-Se-O,mp-557997,[159880],CaSeO3,0,P2_1/c,n,n,,,,{},{},,,"CaOH, H2SeO3",precipitation,10.1007/BF02060322,1996,,FALSE
Ca-Se-O,mp-1095230,"[193629, 291237]",CaSeO4,0.003683518,I4_1/a,n,n,,,,{},{},,,,,10.1180/minmag.2012.076.4.08,2012,high pressure phase of mp-1190360,FALSE
Ca-Se-O,mp-1190384,"[291508, 48200]",CaSeO4,0.47800413,P2_1/c,n,?,,,,{},{},,,,,,,"ICSD 291508, 48200 contain hydrogen",N/A
Ca-Se-O,mp-1190360,[193628],CaSeO4,0,P2_1/c,n,n,,,,{},{},,,CaSeO4·2H2O,decomposition,10.1180/minmag.2012.076.4.08,2012,,FALSE
Ca-Sn-O,mp-4747,"[173626, 9011]",Ca2SnO4,0,Pbam,y,y,1673,AP,,{},"{""step1"": {""cool rate"": [], ""cool time"": [], ""cool medium"": [], ""cool type"": [""furnace cool""], ""end temperature"": [""RT""], ""remark"": []}}",1,,"Y2O3, SnO2",,10.1016/j.jssc.2008.06.033,2008,,FALSE
Ca-Sn-O,mp-29241,"[100787, 181084, 181085]",Ca3SnO,0,Pm-3m,y,y,1123,0,vacuum,{},"{""step1"": {""cool rate"": [], ""cool time"": [], ""cool medium"": [], ""cool type"": [""quench""], ""end temperature"": [""RT""], ""remark"": []}}",1,,"Ca, Sn, SnO2",,10.1063/1.4952393,2016,,FALSE
Ca-Sn-O,mp-546910,[27777],CaSnO3,1.493966781,Pm-3m,y,?,,,,{},{},,,,,,,might be old refinement of mp-4438; energy above hull looks suspicious,N/A
Ca-Sn-O,mp-4438,"[193658, 151592, 151597, 151595, 151598, 151596, 190603, 59160, 151591, 151593, 151594]",CaSnO3,0.014034985,Pnma,y,y,1273,AP,,"{""step1"": {""grind method"": [""ball milling""], ""wet/dry"": [], ""liquid"": [""isopropanol ""]}}",{},2,,"Ca(NO3)2·H2O, SnO2",,10.1016/S0925-8388(98)00808-1,1999,inhomogeneous,FALSE
Ca-Sn-O,mp-7986,"[29149, 56095, 181087, 181086]",CaSnO3,0.195252273,Pm-3m,y,?,,,,{},{},,,,,,,might be old refinement of mp-4438,N/A
Ca-Sn-O,mp-4190,"[2373, 29204]",CaSnO3,0,R-3,y,n,,,,{},{},,,"Li2SnO3, CaCl, NaCl",double decomposition,10.1107/S0021889878013369,1978,other phase of mp-4438,FALSE
Ca-Sn-O,mp-1201737,[27766],CaSnO6,0.686750772,Pn-3,?,?,,,,{},{},,,,,,,ICSD 27766 contain hydrogen,N/A
Ca-Sn-O,mp-1197808,[25825],CaSnO6,0.763886395,Pn-3m,?,?,,,,{},{},,,,,,,ICSD 25825 contain hydrogen,N/A
Ca-Ta-O,mp-680380,[93847],Ca2Ta2O7,0,C2,y,n,,,,{},{},,,,flux,10.1006/jssc.2001.9308,2001,"7M phase; other phase of Ca2Ta2O7-3T, which can be synthesized via solid state synthesis",FALSE
Ca-Ta-O,mp-640836,[154319],Ca2Ta2O7,0.00023674,C222_1,y,n,,,,{},{},,,,from melt,10.1524/zkri.220.2.269.59112,2009,"8O phase; other phase of Ca2Ta2O7-3T, which can be synthesized via solid state synthesis",FALSE
Ca-Ta-O,mp-14026,[27121],Ca2Ta2O7,0.000788423,Fd-3m,y,?,,,,{},{},,,,,10.1016/0079-6786(83)90001-8,1983,"other phase of Ca2Ta2O7-3T, which can be synthesized via solid state synthesis",FALSE
Ca-Ta-O,mp-18229,[24091],CaTa2O6,0,Pnma,y,y,1773,AP,,{},{},2,,"Ta2O5, CaCO3",,10.1515/znb-1985-1210,1985,,TRUE
Ca-Ta-O,mp-554038,[47121],CaTa2O6,0.072338638,Pm-3,y,n,,,,{},{},,,,from melt,10.1002/zaac.19845160925,1984,other phase of mp-18229,FALSE
Ca-Ta-O,mp-3079,"[108808, 1854, 18306]",CaTa4O11,0,P6_322,y,y,1773,AP,,"{""step1"": {""grind method"": [""agate mortar""], ""wet/dry"": [], ""liquid"": []}}",{},2,,"Ta2O5, CaCO3",,10.1515/znb-1985-1210,1985,,TRUE
Ca-Tc-O,mp-1188853,"[261342, 261341]",CaTcO3,0,Pnma,y,y,1423,,Ar,{},{},2,,"NH4TcO4, Ca(NO3)2·H2O",,10.1021/ja109431t,2011,,FALSE
Ca-Te-O,mp-5279,"[16362, 35085]",Ca3TeO6,0,P2_1/c,y,y,1000,AP,,{},{},1,,"TeO2, CaCO3",,10.1107/S0567740881002550,1981,,FALSE
Ca-Te-O,mp-680711,[413059],Ca4Te5O14,0.002871693,Pbca,y,y,1123,AP,,{},"{""step1"": {""cool rate"": [], ""cool time"": [{""value"": ""60"", ""unit"": ""h""}], ""cool medium"": [], ""cool type"": [], ""end temperature"": [{""value"": ""700"", ""unit"": ""C""}], ""remark"": []}, ""step2"": {""cool rate"": [], ""cool time"": [], ""cool medium"": [], ""cool type"": [""furnace cool""], ""end temperature"": [""RT""], ""remark"": []}}",1,,"CaCO3, TeO2",,10.1016/j.solidstatesciences.2003.11.003,2004,,FALSE
Ca-Te-O,mp-559210,[245873],Ca5Te3O14,0.000740913,Cmce,y,y,973,AP,,{},"{""step1"": {""cool rate"": [], ""cool time"": [], ""cool medium"": [], ""cool type"": [""furnace cool""], ""end temperature"": [""RT""], ""remark"": []}}",1,,"CaCO3, TeO2",,10.1016/j.jssc.2008.02.033,2008,,FALSE
Ca-Te-O,mp-5040,"[419646, 260041]",CaTe2O5,0,P2_1/c,y,n,,,,{},{},,,CaTe2O5,hydrothermal,10.1107/S0108270108024827,2008,"epsilon phase, other phase of alpha-CaTe2O5, which can be synthesized via solid state synthesis",FALSE
Ca-Te-O,mp-15511,[100661],CaTe3O8,0,C2/c,n,n,,,,{},{},,,"CaO, Te(OH)6, TeO2",hydrothermal,https://pubs.geoscienceworld.org/msa/ammin/article/63/9-10/847/40966,1978,,FALSE
Ca-Te-O,mp-560656,[260226],CaTeO3,0,P4_3,y,y,973,AP,,{},{},1,,"CaO, TeO2",,10.1107/S0108768109002997,2009,alpha phase,FALSE
Ca-Te-O,mp-561374,"[260228, 260227]",CaTeO3,0.010770621,P1,y,y,1273,AP,,{},"{""step1"": {""cool rate"": [], ""cool time"": [], ""cool medium"": [], ""cool type"": [""quench""], ""end temperature"": [""RT""], ""remark"": []}}",1,,"CaO, TeO2",,10.1107/S0108768109002997,2009,beta phase; high temperature phase of mp-560656,FALSE
Ca-Te-O,mp-560097,[260237],CaTeO3,0.010455081,P2_1/c,y,n,,,,{},{},,,,from melt,10.1107/S0108768109002997,2009,other phase of mp-560656; gamma phase,FALSE
Ca-Te-O,mp-17008,[260238],CaTeO3,0.010153299,P2_1,y,?,,,,{},{},,,,,10.1107/S0108768109002997,2009,different stoichiometry: Ca0.55Sr0.45TeO3,FALSE
Ca-Te-O,mp-2981,"[260233, 260231, 260232]",CaTeO3,0.008758466,P-1,y,y,,,,{},{},,,,,10.1107/S0108768109002997,2009,low temperature phase of mp-561374; beta II phase,FALSE
Ca-Te-O,mp-12221,[8097],CaTeO4,0,Pbcn,n,n,,,,{},{},,,"CaCl2·2H2O, SrCI2·6H2O",precipitation,10.1107/S0567740879004568,1979,,FALSE
Ca-Te-O,mp-1195434,[238568],CaTeO4,0.218111702,Pna2_1,n,?,,,,{},{},,,,,,,ICSD 238568 contain hydrogen,N/A
Ca-Ti-O,mp-4163,"[86241, 63705]",Ca3Ti2O7,0.002514469,Cmc2_1,y,y,1773,AP,,"{""step1"": {""grind method"": [""ball milling""], ""wet/dry"": [], ""liquid"": []}}",{},2,,"CaCO3, TiO2",,10.1107/S0108768190013416,1991,,FALSE
Ca-Ti-O,mp-15315,[86242],Ca4Ti3O10,0.001415304,Pbca,y,y,1773,AP,,"{""step1"": {""grind method"": [""ball milling""], ""wet/dry"": [], ""liquid"": []}}",{},2,,"CaCO3, TiO2",,10.1107/S0108768190013416,1991,inhomogeneous,FALSE
Ca-Ti-O,mp-3463,"[16620, 161974, 51183]",CaTi2O4,0.024541277,Cmcm,n,n,,,,{},{},,,"CaTiO3, CaCl2","flux, reduction",10.1006/jssc.1998.7932,1998,,FALSE
Ca-Ti-O,mp-1079825,[40342],CaTi2O6,0.182062142,P-31m,?,?,,,,{},{},,,,,,,ICSD 40342 contain hydrogen,N/A
Ca-Ti-O,mp-3442,"[162922, 162919, 162921, 162920]",CaTiO3,0.018483708,I4/mcm,y,y,,,,{},{},,,,,10.1016/j.ssi.2008.11.019,2009,high temperature phase of mp-4019,FALSE
Ca-Ti-O,mp-4019,"[193648, 50364, 74214, 162918, 97828, 62149, 185453, 185454, 162914, 162916, 185449, 185448, 185444, 174127, 180956, 162909, 163528, 189135, 185446, 74216, 185447, 96258, 162915, 153172, 167809, 185450, 74213, 94568, 163663, 162908, 162911, 162917, 51024, 162910, 71916, 185445, 150420, 37263, 157115, 165801, 93082, 185451, 162913, 74212, 71915, 186224, 74215, 85101, 82487, 163662, 162912, 185443, 185452, 167888, 16688]",CaTiO3,0,Pnma,y,y,1673,AP,,"{""step1"": {""grind method"": [""agate mortar""], ""wet/dry"": [], ""liquid"": [""ethanol""]}}",{},2,,"CaCO3, TiO2",,10.1016/j.ssi.2008.11.019,2009,,FALSE
Ca-Ti-O,mp-556003,"[50364, 74214, 162918, 97828, 62149, 185453, 185454, 162914, 162916, 185449, 185448, 185444, 174127, 180956, 162909, 163528, 189135, 185446, 74216, 185447, 96258, 162915, 153172, 167809, 185450, 74213, 94568, 163663, 162908, 162911, 162917, 51024, 162910, 71916, 185445, 150420, 37263, 157115, 165801, 93082, 185451, 162913, 74212, 71915, 186224, 74215, 85101, 82487, 163662, 162912, 185443, 185452, 167888, 16688]",CaTiO3,0.011072112,Imma,y,?,,,,{},{},,,,,,,same ICSD as mp-4019,N/A
Ca-Ti-O,mp-5827,"[187293, 77060, 153173, 165076, 162924, 162926, 187294, 31865, 162925, 162923, 153174, 31864]",CaTiO3,0.064471282,Pm-3m,y,y,,,,{},{},,,,,10.1016/j.ssi.2008.11.019,2009,high temperature phase of mp-4019,FALSE
Ca-Ti-O,mp-1205364,"[38212, 29116]",CaTiO3,0.012672239,Cmcm,y,?,,,,{},{},,,,,10.1107/S0365110X57000675,1957,old refinement of mp-4019,FALSE
Ca-Tl-O,mp-9216,[413876],Ca3Tl2O6,0,Pbam,y,y,1123,,,{},"{""step1"": {""cool rate"": [{""value"": ""100"", ""unit"": ""C/h""}], ""cool time"": [], ""cool medium"": [], ""cool type"": [], ""end temperature"": [""RT""], ""remark"": []}}",1,,"CaO, Tl2O3",,10.1016/j.solidstatesciences.2004.03.003,2004,,FALSE
Ca-Tl-O,mp-5402,"[413874, 79371]",CaTl2O4,0.009387987,Cmcm,y,y,973,,,{},"{""step1"": {""cool rate"": [{""value"": ""100"", ""unit"": ""C/h""}], ""cool time"": [], ""cool medium"": [], ""cool type"": [], ""end temperature"": [""RT""], ""remark"": []}}",1,,"CaO, Tl2O3",,10.1016/j.solidstatesciences.2004.03.003,2004,,FALSE
Ca-U-O,mp-17956,[23198],Ca2UO5,0.016346101,P2_1/c,y,y,1273,AP,,{},{},1,,"CaCO3, UO3",,10.1107/S0567740869002974,1969,inhomogeneous,FALSE
Ca-U-O,mp-14252,[35457],Ca3UO6,0,R-3,y,y,1373,AP,,{},{},1,,"Ca(NO3)2, UO2(NO3)2",,10.1016/0022-4596(83)90097-X,1983,other phase of mp-5960; alpha phase,FALSE
Ca-U-O,mp-1188279,"[14391, 23200, 14392]",Ca3UO6,0.038745988,P2_1,y,?,,,,{},{},,,,,10.1107/S0108270186095525,1986,old refinement of mp-5960,FALSE
Ca-U-O,mp-5960,[59172],Ca3UO6,0.03769275,P2_1/c,y,y,1473,AP,,{},{},3,,"CaCO3, U3O8",,10.1107/S0108270186095525,1986,beta phase,FALSE
Ca-U-O,mp-3960,"[425121, 239453, 246962, 31631, 23195]",CaUO4,0,R-3m,y,y,1173,AP,,{},{},1,,"CaCO3, U3O8",,10.1016/j.jssc.2016.01.019,2016,alpha phase,FALSE
Ca-V-O,mp-27614,"[20609, 421266]",Ca2V2O7,0,P-1,y,y,1023,AP,,{},{},2,,"CaCO3, V2O5",,10.1016/j.optmat.2010.05.021,2010,,FALSE
Ca-V-O,mp-1194234,[1993],Ca2V2O9,0.333305561,P-1,?,?,,,,{},{},,,,,,,ICSD 1993 contain hydrogen,N/A
Ca-V-O,mp-1182001,[412273],Ca3V2O8,0.037070704,C2/m,y,y,1373,11,,{},{},1,,Ca2V2O8,,10.1016/S1293-2558(02)01287-6,2002,"high temperature/pressure phase of R3c Ca3V2O8, which can be synthesized via solid state synthesis: 10.1080/00150190500308538",FALSE
Ca-V-O,mp-1196692,"[6107, 92044]",Ca5V3O13,0.005134831,P6_3/m,?,?,,,,{},{},,,,,,,"ICSD 6107, 92044 contain hydrogen",N/A
Ca-V-O,mp-1193743,[17001],CaV2O10,0.570865917,P-1,?,?,,,,{},{},,,,,,,ICSD 17001 contain hydrogen,N/A
Ca-V-O,mp-504712,"[164187, 164186, 27925, 164185, 164188]",CaV2O4,0,Pnma,y,y,1473,,H2/He,{},{},1,,"CaCO3, V2O3",,10.1103/PhysRevB.79.104432,2009,,FALSE
Ca-V-O,mp-19305,[82689],CaV2O5,0,Pmmn,y,y,1223,0,vacuum,{},{},1,,"CaVO3, V2O3, V2O5",,10.1006/jssc.1996.0395,1996,,FALSE
Ca-V-O,mp-27624,"[166516, 21064]",CaV2O6,0,C2/m,y,y,1003,AP,,{},{},1,,"CaCO3, V2O5",,https://www.persee.fr/doc/bulmi_0037-9328_1972_act_95_1_6655,1972,,TRUE
Ca-V-O,mp-19347,"[241205, 241189, 241198, 241201, 241200, 241195, 241190, 241206, 241192, 190402, 241202, 241196, 241203, 241193, 241194, 241204, 241188, 241191, 241197, 2507, 241199]",CaV3O7,0.002059221,Pnma,y,y,1073,0,vacuum,{},{},2,,"CaCO3, V2O5",,10.1088/0953-8984/14/23/307,2002,,FALSE
Ca-V-O,mp-18866,"[90927, 2556]",CaV4O9,0.023470001,P4/n,y,y,1023,0,vacuum,{},{},1,,"CaO, VO2",,10.1107/S0567740873004462,1973,,TRUE
Ca-V-O,mp-22608,"[88978, 237336, 81056]",CaVO3,0.000894398,Pnma,y,y,1273,6.5,,{},{},1,,"CaO, VO2",,10.1016/0022-4596(71)90035-1,1971,,FALSE
Ca-W-O,mp-779906,[262323],Ca3WO6,0.024646384,P2_1/c,y,y,1623,AP,,{},{},2,,"CaCO3, WO3",,10.1016/j.jssc.2011.11.007,2012,,FALSE
Ca-W-O,mp-19426,"[291535, 193491, 155791, 15586, 77335, 60548, 157428, 60549, 15869, 155423, 60550, 193047, 60547, 18135, 60551]",CaWO4,0,I4_1/a,y,y,1373,AP,,"{""step1"": {""grind method"": [""mortar""], ""wet/dry"": [], ""liquid"": []}}",{},1,,"CaCO3, WO3",,10.1039/C5RA12502B,2015,,FALSE
Ca-W-O,mp-1190383,"[238258, 238259]",CaWO4,0.192785335,Cmce,y,y,,,,{},{},,,,,10.1021/ic5012555,2014,high pressure phase of mp-19426,FALSE
Ca-Yb-O,mp-22161,"[27312, 15124]",CaYb2O4,0.15670993,Pnma,n,n,,,,{},{},,,,precipitations ,10.1111/j.1151-2916.1966.tb13196.x,1966,,FALSE
Ca-Zr-O,mp-554190,"[69168, 130054]",CaZr4O9,0.001694633,C2/c,y,y,1420,AP,,{},{},2,,"CaCO3, ZrO2",,10.1016/0968-4328(94)90012-4,1994,,FALSE
Ca-Zr-O,mp-542112,"[56094, 29003]",CaZrO3,0.191901573,Pm-3m,y,?,,,,{},{},,,,,10.1107/S0108270183008392,1983,might be old refinement of mp-4571,FALSE
Ca-Zr-O,mp-4571,"[239370, 97466, 183758, 97464, 167889, 183757, 97463, 97465, 130053, 37264]",CaZrO3,0,Pnma,y,y,1723,AP,,"{""step1"": {""grind method"": [""ball milling""], ""wet/dry"": [], ""liquid"": []}}",{},1,,"CaO, ZrO2",,10.1107/S0108270183008392,1983,,FALSE
Cd-As-O,mp-10486,[280579],Cd2As2O7,0.013143377,C2/m,y,y,873,,,{},{},1,,,,10.1107/S1600536801004342,2001,,FALSE
Cd-As-O,mp-13602,[14257],Cd3As2O8,0,P2_1/c,n,n,,,,{},{},,,"HNO3, As2O3, CdO",precursor method,10.1524/zkri.1970.132.16.332,1970,ICSD 14257 doi not working,TRUE