system,mp_id,icsd_ids,composition,e_above_hull,Spacegroup Number,solid_state_synthesized_composition,solid_state_synthesized_structure,sss_highest_temperature(K),sss_pressure(GPa),sss_atmosphere,sss_mixing_condition,sss_cooling_condition,sss_heating_step,single_crystal,sss_precursor,other_synthesis_method,reference,reference_year,comment,google_translate
Sn-Mo-O,mp-14695,[68511],SnMo5O8,0.230214441,P2_1/c,y,y,2030,,,{},"{""step1"": {""cool rate"": [{""value"": ""25"", ""unit"": ""C/h""}], ""cool time"": [], ""cool medium"": [], ""cool type"": [], ""end temperature"": [{""value"": ""1673"", ""unit"": ""K""}], ""remark"": []}, ""step2"": {""cool rate"": [{""value"": ""120"", ""unit"": ""C/h""}], ""cool time"": [], ""cool medium"": [], ""cool type"": [], ""end temperature"": [{""value"": ""1273"", ""unit"": ""K""}], ""remark"": []}}",1,y,"MoO3, Mo, SnO2",,10.1107/S0108270189010759,1990,,FALSE
Sn-Os-O,mp-28456,[59312],Sn15Os3O14,0,Cm,?,?,,,,{},{},,,,,10.1107/S0108270196009560,1997,insufficient information: only mentioned Sn15Os3O14 single crystal synthesized from SnO2 + Sn15Os3O14 + Sn,TRUE
Sn-Pb-O,mp-22467,"[31485, 31484]",SnPb2O4,0,P4_2/mbc,y,y,973,,N2,{},{},1,,"SnO2, PbO",,10.1016/0022-4596(81)90194-8,1981,,TRUE
Sn-Pb-O,mp-1191975,[15307],Sn2Pb2O7,0.054511992,Fd-3m,?,?,,,,{},{},,,,,,,ICSD 15307 contain hydrogen,N/A
Sn-Pb-O,mp-504543,[15308],SnPbO3,0.155917082,Fd-3m,y,n,,,,{},{},,,,precipitation  ,"Annales de Chimie 1971, 109 (1971)",1971,"other phase of perovskite PbSnO3, which can be synthesized via high pressure solid state synthesis: 10.1016/0025-5408(68)90078-0",TRUE
Sn-Se-O,mp-555682,[154717],SnSe2O6,0.004460348,P2_1/c,n,n,,,,{},{},,,"SnCl2, SeO2, H2O",hydrothermal,10.1016/j.jallcom.2005.10.003,2006,,FALSE
Sn-Se-O,mp-556672,[154716],SnSe2O6,0,Pa-3,n,n,,,,{},{},,,"SnCl2, SeO2, H2O",hydrothermal,10.1016/j.jallcom.2005.10.003,2006,,FALSE
Sn-Te-O,mp-12231,[9077],SnTe3O8,0,Ia-3,y,y,973,,,{},{},1,,"TeO2, SnO2",,10.1107/S0567740871002620,1971,,TRUE
Sn-W-O,mp-557633,[249546],Sn2WO5,0.025050244,P2_1/c,n,n,,,,{},{},,,"SnO, WO3, NaOH, NH4OH, H2O",hydrothermal,10.1021/ic700740m,2007,,FALSE
Sn-W-O,mp-556980,[249534],Sn3WO6,0.047344478,C2/c,y,y,813,0,vacuum,{},"{""step1"": {""cool rate"": [], ""cool time"": [], ""cool medium"": [""ice water"", ""ice""], ""cool type"": [""quench""], ""end temperature"": [""RT""], ""remark"": []}}",1,,"SnO, WO3",,10.1021/ic700740m,2007,10.1021/ic700740m,FALSE
Sn-W-O,mp-557003,[80212],Sn5W8O22,0.133945156,P6_3/m,y,y,1073,0,vacuum,{},{},1,,"W, WO3, SnO2",,10.1039/DT9950001947,1995,,FALSE
Sn-W-O,mp-27357,[10437],Sn5W8O23,0.110287399,P6_3/m,?,?,,,,{},{},,,,,10.1039/DT9950001947,1995,old refinement of mp-557003,FALSE
Sn-W-O,mp-17700,[2147],SnWO4,0.020074299,Pnna,y,y,870,0,vacuum,{},{},1,,"WO3, SnO",,10.1107/S0567740874006534,1974,alpha phase,FALSE
Sn-W-O,mp-17844,[2840],SnWO4,0.09937361,P2_13,y,y,,,,{},{},1,,"SnO2, WO3",,10.1107/S056774087200768X,1972,beta phase; high temperature phase of mp-17700,FALSE
Sr-Ag-O,mp-27352,[10359],SrAg6O4,0,Pnna,y,y,923,0.3,O2,{},{},1,,"SrO, Ag2O",,10.1002/zaac.19723930310,1972,,TRUE
Sr-Al-O,mp-680432,[95535],Sr10Al6O19,0.013796086,C2/c,?,?,,,,{},{},,,"SrCO3, Al2O3",,10.1016/S0025-5408(02)00682-7,2002,uncertain phase percentage,FALSE
Sr-Al-O,mp-30906,[97713],Sr2Al6O11,0.004628746,Pnnm,n,n,,,,{},{},,,"Al2O3, SrCO3, B2O3",flux,10.2497/jjspm.49.1128,2002,,FALSE
Sr-Al-O,mp-3393,"[71860, 66062]",Sr3Al2O6,0,Pa-3,y,y,1573,AP,,{},{},1,,"Al2O3, SrCO3",,10.1107/S0108270191010211,1992,,FALSE
Sr-Al-O,mp-5512,"[27744, 88527]",Sr4Al14O25,0.002223709,Pmma,?,?,,,,{},{},,,,,10.1023/A:1004759621850,1999,"insufficient information: introduction suggested no flux was used in the past papers, another later paper also did not use flux but experimental condition similar to other studies where flux was needed:10.1134/S0020168509110181",FALSE
Sr-Al-O,mp-6995,"[2006, 43155, 184967]",SrAl12O19,0.00275964,P6_3/mmc,y,y,1673,,H2/N2,{},{},1,,,,10.1016/S0022-2313(96)00221-9,1997,"doped: Pr, Mg",FALSE
Sr-Al-O,mp-5492,"[160299, 153164, 160298]",SrAl2O4,0.005956146,P6_3,y,y,,,,{},{},,,,,10.1016/j.jssc.2007.10.021,2007,high temperature phase of mp-3094,FALSE
Sr-Al-O,mp-3094,"[291357, 291361, 160297, 26466, 160296]",SrAl2O4,0,P2_1,y,y,1673,,H2/N2,"{""step1"": {""grind method"": [""agate mortar""], ""wet/dry"": [], ""liquid"": []}}","{""step1"": {""cool rate"": [{""value"": ""180"", ""unit"": ""C/h""}], ""cool time"": [], ""cool medium"": [], ""cool type"": [], ""end temperature"": [""RT""], ""remark"": []}}",1,,"SrCO3, Al2O3",,10.1021/acsami.5b00445,2015,,FALSE
Sr-Al-O,mp-556167,[34803],SrAl4O7,0.135153508,Cmme,y,y,,,,{},{},,,,,10.1107/S0567740882004294,1981,high pressure phase of mp-3788,FALSE
Sr-Al-O,mp-3788,"[2817, 16751]",SrAl4O7,0,C2/c,y,y,1673,AP,,"{""step1"": {""grind method"": [""agate mortar""], ""wet/dry"": [], ""liquid"": []}}",{},2,,"SrCO3, Al2O3",,10.1016/j.ceramint.2015.02.047,2015,,FALSE
Sr-As-O,mp-983061,[420297],SrAs2O6,0,P6_3/mcm,n,n,,,,{},{},,,"Sr(OH)2·8H2O, H3AsO4.0·5H2O, Fe2O3",hydrothermal,10.1016/j.solidstatesciences.2009.08.019,2009,beta phase,FALSE
Sr-As-O,mp-754118,[420296],SrAs2O6,0.000319087,P-31m,n,n,,,,{},{},,,,,10.1016/j.solidstatesciences.2009.08.019,2009,other phase of mp-983061; alpha phase,FALSE
Sr-As-O,mp-1179360,[8029],SrAs2O8,0.603763194,P-1,?,?,,,,{},{},,,,,,,ICSD 8029 contain hydrogen,N/A
Sr-As-O,mp-1196745,[190008],Sr2As2O7,0,P4_3,y,y,973,AP,,{},"{""step1"": {""cool rate"": [], ""cool time"": [], ""cool medium"": [""air""], ""cool type"": [""quench""], ""end temperature"": [""RT""], ""remark"": []}}",1,,"SrCO3, As2O5",,10.1016/j.solidstatesciences.2009.08.019,2009,,FALSE
Sr-As-O,mp-1201749,"[247643, 420300]",Sr2As2O7,0.000195815,P4_1,y,?,,,,{},{},,,,,10.1107/S1600536813031619,2013,old refinement of mp-1196745,FALSE
Sr-As-O,mp-8299,[33904],Sr4As2O,0,I4/mmm,y,y,1273,,Ar,{},{},2,,"SrO, Sr, As",,10.1002/zaac.19915970110,1991,,TRUE
Sr-As-O,mp-1196121,"[416665, 416664]",SrAsO4,0.154252335,P-1,?,?,,,,{},{},,,,,,,"ICSD 416665, 416664 contain hydrogen",N/A
Sr-As-O,mp-1197698,[27444],SrAsO5,0.411764284,Pbca,?,?,,,,{},{},,,,,,,ICSD 27444 contain hydrogen,N/A
Sr-Au-O,mp-9298,[80328],SrAu2O4,0,I4_1/a,y,y,923,0.333,protective gas,{},"{""step1"": {""cool rate"": [], ""cool time"": [{""value"": ""12"", ""unit"": ""hour""}], ""cool medium"": [], ""cool type"": [], ""end temperature"": [""RT""], ""remark"": []}}",1,,"Au, BaO2",,10.1006/jssc.1995.1340,1995,,TRUE
Sr-Be-O,mp-27791,[26179],SrBe3O4,0,P-62c,n,n,,,,{},{},,,"SrCO3, BeO",from melt,10.1107/S0567740869004468,1969,,FALSE
Sr-Bi-O,mp-29048,[80668],SrBi2O4,0,C2/m,y,y,1023,AP,,{},{},1,,"Bi2O3, SrCO3",,10.1016/0025-5408(91)90080-6,1991,,FALSE
Sr-Bi-O,mp-23357,"[86416, 86415]",Sr2Bi2O5,0,Pnma,y,y,1173,AP,,{},{},3,,"SrCO3, Bi2O3",,10.1016/0022-4596(91)90292-P,1991,,FALSE
Sr-Bi-O,mp-29164,[85173],SrBiO3,0,P2_1/c,n,n,,,,{},{},,,Sr2Bi2O5,oxidation,10.1038/36529,1997,,FALSE
Sr-Ca-O,mp-1079940,[180195],Sr3CaO4,0.033720292,Pm-3m,?,?,,,,{},{},,,,,10.1016/j.jallcom.2010.11.097,2011,modelling of Sr0.75Ca0.25O,FALSE
Sr-Ca-O,mp-978844,[180197],SrCa3O4,0.039903642,Pm-3m,?,?,,,,{},{},,,,,10.1016/j.jallcom.2010.11.097,2011,modelling of Sr0.25Ca0.75O,FALSE
Sr-Ca-O,mp-1017988,[180196],SrCaO2,0.048694427,P4/mmm,?,?,,,,{},{},,,,,10.1016/j.jallcom.2010.11.097,2011,modelling of Sr0.5Ca0.5O,FALSE
Sr-Cd-O,mp-981103,[181060],Sr3CdO4,0.018506251,Pm-3m,?,?,,,,{},{},,,,,10.1016/j.physb.2011.03.042,2011,modelling of Cd0.75Sr0.25O,FALSE
Sr-Cd-O,mp-1018032,[181059],SrCdO2,0.028113527,P4/mmm,?,?,,,,{},{},,,,,10.1016/j.physb.2011.03.042,2011,modelling of Cd0.5Sr0.5O,FALSE
Sr-Ce-O,mp-15743,"[237186, 86768, 237179]",Sr2CeO4,0,Pbam,y,y,1273,AP,,{},{},1,,"SrCO3, CeO2",,10.1016/S0022-2860(98)00485-2,1998,,FALSE
Sr-Ce-O,mp-22428,"[238833, 237180, 152666, 154924, 152665, 152664, 154927, 154926, 80271, 79003, 78536, 154925, 71352, 152667]",SrCeO3,0.008365879,Pnma,y,y,1673,AP,,{},"{""step1"": {""cool rate"": [{""value"": ""180"", ""unit"": ""C/h""}], ""cool time"": [], ""cool medium"": [], ""cool type"": [], ""end temperature"": [""RT""], ""remark"": []}}",4,,"SrCO3, CeO2",,10.1039/C5DT00041F,2015,,FALSE
Sr-Co-O,mp-542899,"[162241, 173695, 162240, 173696, 173697]",Sr2Co2O5,0.175484728,Ima2,y,y,1183,AP,,{},"{""step1"": {""cool rate"": [], ""cool time"": [], ""cool medium"": [], ""cool type"": [""quench""], ""end temperature"": [""RT""], ""remark"": []}}",1,,"SrCO3, Co3O4",,10.1016/0025-5408(79)90145-4,1979,"high temperature phase of hexagonal Sr2Co2O5, which can be synthesized via solid state synthesis",TRUE
Sr-Co-O,mp-645208,[162239],Sr2Co2O5,0,Pnma,y,?,,,,{},{},,,,,10.1103/PhysRevB.78.054404,2007,other refinement of mp-542899,FALSE
Sr-Co-O,mp-644424,[99894],Sr2CoO3,0.253645221,C2/m,?,?,,,,{},{},,,,,10.1016/j.solidstatesciences.2003.12.004,2004,modulated structure; incomplete formula,FALSE
Sr-Co-O,mp-1298346,[246483],Sr2CoO4,0.003612076,P2_1,y,y,1623,6,,{},"{""step1"": {""cool rate"": [], ""cool time"": [], ""cool medium"": [], ""cool type"": [""quench""], ""end temperature"": [""RT""], ""remark"": []}}",1,,"SrO2, Co",,10.1103/PhysRevB.72.064401,2005,,FALSE
Sr-Co-O,mp-1192011,[182288],Sr3Co2O6,0,R-3c,y,y,1673,6,,{},{},1,,"Co, SrO2",,10.1103/PhysRevB.83.100410,2010,,FALSE
Sr-Co-O,mp-704141,"[427011, 427013]",Sr5Co4O12,0,P-3c1,y,y,1073,AP,,{},{},1,,"SrCO3, Co3O4",,10.1006/jssc.1999.8230,1999,,FALSE
Sr-Co-O,mp-19235,"[173700, 173702, 155311, 173701, 173698, 173699, 181958, 81312]",Sr6Co5O15,0.061692021,R32,y,y,1123,AP,,{},{},2,,"Co3O4, SrCO3",,10.1154/1.3555294,2011,,FALSE
Sr-Co-O,mp-565434,[245305],Sr8Co8O23,0.103255575,I4/mmm,n,n,,,,{},{},,,SrCoO2.5,oxidation,10.1021/ja063207m,2006,,FALSE
Sr-Co-O,mp-18381,[152279],SrCo6O11,0.027891822,P6_3/mmc,n,n,,,,{},{},,,"NaxCoO2, SrCl2, KClO4",ion exchange,10.1021/cm050657p,2005,,FALSE
Sr-Co-O,mp-1077403,[155223],SrCoO,2.066946802,P6_3/mmc,?,?,,,,{},{},,,,,10.1016/j.matchemphys.2005.09.078,2006,different stoichiometry: SrCoOx,FALSE
Sr-Co-O,mp-505766,[77142],SrCoO3,0.058655632,Pm-3m,y,?,,,,{},{},,,,,,,same ICSD as mp-1281764,N/A
Sr-Co-O,mp-1281764,"[184078, 77142]",SrCoO3,0.037373885,Amm2,y,y,1373,AP,,{},{},2,,"Co3O4, SrCO3",,10.1016/j.matlet.2012.01.084,2012,,FALSE
Sr-Cr-O,mp-19514,[26944],Sr2CrO4,0,Pna2_1,y,y,1473,,Ar,{},{},1,,"SrO, Cr2O3, SrCrO4",,10.7566/JPSJ.83.123701,2014,beta phase,FALSE
Sr-Cr-O,mp-18854,[245595],Sr2CrO4,0.04431268,I4/mmm,y,y,,,,{},{},,,,,10.7566/JPSJ.83.123701,2014,alpha phase; high temperature/pressure phase of mp-19514,FALSE
Sr-Cr-O,mp-18833,[85055],Sr3Cr2O8,0.005163192,R-3m,y,y,1473,AP,,"{""step1"": {""grind method"": [""agate mortar""], ""wet/dry"": [], ""liquid"": []}}","{""step1"": {""cool rate"": [], ""cool time"": [], ""cool medium"": [""air""], ""cool type"": [""quench""], ""end temperature"": [""RT""], ""remark"": []}}",1,,"SrCO3, Cr2O3",,10.1103/PhysRevB.76.012407,2007,,FALSE
Sr-Cr-O,mp-554541,[85045],Sr4Cr3O9,0.158466394,P3,n,n,,,,{},{},,,"SrO, Cr2O3",laser synthesis,10.1002/zaac.19895720121,1989,,TRUE
Sr-Cr-O,mp-29919,[91252],Sr9Cr5O18,0.057605127,Cmc2_1,y,y,1473,0,vacuum,{},{},1,,"SrO, SrO2, Cr2O3",,10.1006/jssc.2000.8798,2000,,FALSE
Sr-Cr-O,mp-19505,[85053],SrCr10O15,0.070441688,Cmce,n,n,,,,{},{},,,"SrCO3, Cr2O3",laser synthesis,10.1002/zaac.19895720110,1989,,TRUE
Sr-Cr-O,mp-540583,[6132],SrCr2O4,0,Pmmn,y,y,1823,,"vacuum,Ar",{},"{""step1"": {""cool rate"": [], ""cool time"": [], ""cool medium"": [], ""cool type"": [""furnace cool""], ""end temperature"": [""RT""], ""remark"": []}}",2,,"SrCO3, Cr2O3",,10.1088/0953-8984/23/24/246005,2011,,FALSE
Sr-Cr-O,mp-557093,[28411],SrCr2O7,0,P4_2/nmc,n,n,,,,{},{},1,,SrCr2O7·3H2O,decomposition,"Arkiv for Kemi 26, 149 (1967)",1967,,FALSE
Sr-Cr-O,mp-20029,"[108903, 245834]",SrCrO3,0.109172402,Pm-3m,y,y,1073,7,,{},{},1,,"CrO2, SrO",,10.1016/j.jssc.2008.01.022,2008,,FALSE
Sr-Cr-O,mp-510607,"[40922, 159266, 160793]",SrCrO4,0,P2_1/c,y,y,1473,AP,,{},{},1,,"Cr2O3, SrCO3",,10.1016/S0009-2614(03)01238-7,2003,ICSD 40922 doi not working,FALSE
Sr-Cu-O,mp-13900,[25002],SrCu2O2,0,I4_1/amd,y,y,1123,,,"{""step1"": {""grind method"": [""ball milling""], ""wet/dry"": [], ""liquid"": [""ethanol""]}}","{""step1"": {""cool rate"": [], ""cool time"": [], ""cool medium"": [], ""cool type"": [""quench""], ""end temperature"": [""RT""], ""remark"": []}}",1,,"SrCO3, CuO",,10.1016/S0272-8842(98)00016-9,1999,,FALSE
Sr-Cu-O,mp-8806,"[150912, 68676]",Sr2Cu2O3,0.562074684,Fmmm,?,?,,,,{},{},,,,,10.1016/0025-5408(88)90124-9,1988,modulated structure; incomplete formula,FALSE
Sr-Cu-O,mp-21129,[82019],Sr2Cu2O5,0,Pbam,n,n,,,,{},{},,,"SrCuO2, KClO3",oxidation,10.1006/jssc.1996.0070,1996,,FALSE
Sr-Cu-O,mp-5700,"[416904, 416905]",Sr2Cu3O5,0.063260374,Immm,y,n,,,,{},{},,,,from melt,10.1524/zkri.2006.221.12.782,2006,other phase of mp-552089,FALSE
Sr-Cu-O,mp-552089,[50089],Sr2Cu3O5,0.010184123,Cmmm,y,y,1273,4,,{},{},1,,"SrCO3, CuO",,10.1016/S0921-4534(97)00035-X,1997,,FALSE
Sr-Cu-O,mp-5456,"[151807, 151808, 151812, 151809, 151810, 202993, 246686, 15127, 151811]",Sr2CuO3,0,Immm,y,y,1223,AP,,{},{},1,,"SrCO3, CuO",,10.1103/PhysRevB.70.214101,2004,,FALSE
Sr-Cu-O,mp-5938,"[99041, 416902, 416903]",SrCu2O3,0.018494073,Cmmm,y,y,1323,4,,{},{},1,,"CuO, SrCuO2",,10.1021/ja049212c,2004,,FALSE
Sr-Cu-O,mp-753181,[95957],SrCu2O3,0.02665272,Pmmn,y,?,,,,{},{},,,,,,,same ICSD as mp-3255,N/A
Sr-Cu-O,mp-3255,"[99042, 95957]",SrCu2O3,0.016462503,Pmmn,y,y,,,,{},{},,,,,10.1021/ja049212c,2004,high pressure phase of mp-5938,FALSE
Sr-Cu-O,mp-5787,"[77291, 93653, 202992, 16217, 83051, 77293]",SrCuO2,0,Cmcm,y,y,1123,AP,,{},"{""step1"": {""cool rate"": [], ""cool time"": [], ""cool medium"": [], ""cool type"": [""quench""], ""end temperature"": [""RT""], ""remark"": []}}",1,,"CuO, SrCO3",,10.1016/0022-4596(89)90217-X,1989,ICSD 93653 not found,FALSE
Sr-Cu-O,mp-29049,[80732],SrCuO3,0.041273255,Pmmm,?,?,,,,{},{},,,,,10.1016/0921-4534(94)90418-9,1994,minority phase,FALSE
Sr-Dy-O,mp-556075,[246549],SrDy2O4,0.004663435,Pnma,y,y,1773,AP,,"{""step1"": {""grind method"": [""agate mortar""], ""wet/dry"": [], ""liquid"": []}}",{},1,,"SrCO3, Dy2O3",,10.1103/PhysRevB.71.144414,2004,,FALSE
Sr-Er-O,mp-560445,"[239311, 239310, 239309, 246551]",SrEr2O4,0,Pnma,y,y,1773,AP,,"{""step1"": {""grind method"": [""agate mortar""], ""wet/dry"": [], ""liquid"": []}}",{},1,,"SrCO3, Er2O3",,10.1103/PhysRevB.71.144414,2004,,FALSE
Sr-Fe-O,mp-21926,[94350],SrFe2O4,0,P2_1/c,?,?,,,,{},{},,,,,10.1016/S0025-5408(01)00767-X,2002,uncertain phase percentage,FALSE
Sr-Fe-O,mp-1200902,"[290200, 290201]",Sr2Fe3O6,0.038222456,P4_2/mnm,n,n,,,,{},{},,,"Sr4Fe6O13, CaH2",reduction,10.1002/anie.201209473,2013,,FALSE
Sr-Fe-O,mp-1205087,[247823],Sr2Fe2O5,0.03334952,Pbcm,y,?,,,,{},{},,,,,10.1016/j.ssi.2012.01.005,2012,other refinement of mp-542018,FALSE
Sr-Fe-O,mp-542018,"[51324, 51328, 51323, 51319, 51329, 51327, 51320, 51318, 247822, 51326, 51322, 51321, 51330, 51331, 51325, 14150]",Sr2Fe2O5,0.002433476,Ima2,y,y,1573,AP,,{},{},1,,"SrCO3, Fe2O3",,10.1107/S0567740875003536,1975,,FALSE
Sr-Fe-O,mp-1071505,"[251019, 251018, 251020]",Sr2FeO3,0,Immm,n,n,,,,{},{},,,"Sr2FeO4, CaH2",reduction,10.1021/ic400444u,2013,,FALSE
Sr-Fe-O,mp-19102,"[74420, 69849, 74421, 74419]",Sr2FeO4,0,I4/mmm,y,y,1373,,"air,O2",{},{},2,,,,10.1039/JM9930301231,1993,,FALSE
Sr-Fe-O,mp-18924,"[249014, 74434, 249015]",Sr3Fe2O6,0,I4/mmm,n,n,,,,{},{},,,Sr3Fe2O7,reduction,10.1016/0022-4596(92)90023-O,1992,,FALSE
Sr-Fe-O,mp-1079306,[261512],Sr3Fe2O5,0.076911148,Cmmm,n,n,,,,{},{},,,,,10.1021/ja200410z,2011,high pressure phase of mp-19218,FALSE
Sr-Fe-O,mp-19218,"[420235, 420234]",Sr3Fe2O5,0.028729943,Immm,n,n,,,,{},{},,,"Sr3Fe2O7, CaH2",reduction,10.1002/anie.200801146,2008,,FALSE
Sr-Fe-O,mp-18820,"[74422, 74437, 2648, 74423, 163173]",Sr3Fe2O7,0,I4/mmm,y,y,1573,,"air,O2",{},{},2,,,,10.1039/JM9930301231,1993,,FALSE
Sr-Fe-O,mp-21059,"[249007, 190554, 190551, 190558, 190555, 249009, 190552, 190556, 91064, 163169, 190557, 190553]",Sr4Fe4O11,0.005813058,Cmmm,y,y,1373,AP,,"{""step1"": {""grind method"": [""ball milling""], ""wet/dry"": [], ""liquid"": []}}",{},3,,"SrCO3, Fe2O3",,10.1088/0953-8984/15/50/003,2003,,FALSE
Sr-Fe-O,mp-505440,"[201932, 63621]",Sr4Fe6O13,0.507454285,Iba2,y,y,1423,AP,,{},"{""step1"": {""cool rate"": [], ""cool time"": [], ""cool medium"": [""air""], ""cool type"": [""quench""], ""end temperature"": [""RT""], ""remark"": []}}",2,,"SrCO3, Fe2O3",,10.1016/S0022-3697(72)80278-6,1972,,FALSE
Sr-Fe-O,mp-19004,"[186858, 186859, 249000, 91063]",Sr8Fe8O23,0,I4/mmm,y,y,1373,AP,,{},{},2,,"SrCO3, Fe2O3",,10.1016/j.jmmm.2019.165265,2019,inhomogeneous,FALSE
Sr-Fe-O,mp-3742,"[291193, 69023]",SrFe12O19,0.072486954,P6_3/mmc,y,y,1473,,,"{""step1"": {""grind method"": [""agate mortar""], ""wet/dry"": [], ""liquid"": []}}","{""step1"": {""cool rate"": [], ""cool time"": [], ""cool medium"": [], ""cool type"": [""slow cooling""], ""end temperature"": [""RT""], ""remark"": []}}",2,,"SrCO3, Fe2O3",,10.1016/j.jmmm.2015.03.078,2015,,FALSE
Sr-Fe-O,mp-21145,"[418606, 418603, 418605, 173434]",SrFeO2,0.001535551,P4/mmm,n,n,,,,{},{},,,"SrFeO2.875, CaH2",reduction,10.1038/nature06382,2007,,FALSE
Sr-Fe-O,mp-510624,"[92335, 163228, 91062]",SrFeO3,0,Pm-3m,y,y,1573,AP,,"{""step1"": {""grind method"": [""ball milling""], ""wet/dry"": [], ""liquid"": [""water"", ""Dolapix CE 64""]}}","{""step1"": {""cool rate"": [{""value"": ""300"", ""unit"": ""C/h""}], ""cool time"": [], ""cool medium"": [], ""cool type"": [], ""end temperature"": [""RT""], ""remark"": []}}",1,,"Fe2O3, SrCO3",,10.1016/j.materresbull.2008.11.026,2009,,FALSE
Sr-Ga-O,mp-680384,[93802],Sr10Ga6O19,0.012857223,C2/c,y,y,1773,AP,,"{""step1"": {""grind method"": [""agate mortar""], ""wet/dry"": [], ""liquid"": [""ethanol""]}}","{""step1"": {""cool rate"": [], ""cool time"": [], ""cool medium"": [""air""], ""cool type"": [], ""end temperature"": [""RT""], ""remark"": []}}",1,y,"SrCO3, Ga2O3",,10.1107/S0108768109026974,2007,,FALSE
Sr-Ga-O,mp-1020723,[428803],Sr2Ga2O5,0.011770942,Pbca,y,y,1273,3,,"{""step1"": {""grind method"": [""agate mortar""], ""wet/dry"": [], ""liquid"": [""acetone""]}}","{""step1"": {""cool rate"": [{""value"": ""30"", ""unit"": ""C/s""}], ""cool time"": [], ""cool medium"": [], ""cool type"": [""quench""], ""end temperature"": [""RT""], ""remark"": []}}",1,y,"SrCO3, Ga2O3",,10.1016/j.jssc.2015.04.016,2015,,FALSE
Sr-Ga-O,mp-1201384,[249850],Sr3Ga2O12,0.456237991,Ia-3d,?,?,,,,{},{},,,,,,,ICSD 249850 contain hydrogen,N/A
Sr-Ga-O,mp-4446,"[94074, 93803]",Sr3Ga2O6,0.001608517,Pa-3,y,y,1273,AP,,"{""step1"": {""grind method"": [""agate mortar""], ""wet/dry"": [], ""liquid"": [""acetone""]}}",{},1,,"SrCO3, Ga2O3",,10.1006/jssc.2001.9259,2001,,FALSE
Sr-Ga-O,mp-30158,[51546],Sr3Ga4O9,0,P-1,y,y,1573,AP,,"{""step1"": {""grind method"": [""agate mortar""], ""wet/dry"": [], ""liquid"": []}}",{},2,,"SrCO3, Ga2O3",,10.1039/C8TC04012E,2018,,FALSE
Sr-Ga-O,mp-1204230,[153068],Sr4Ga2O7,0.00691808,Pc,y,y,1823,AP,,"{""step1"": {""grind method"": [""mortar""], ""wet/dry"": [], ""liquid"": [""acetone""]}}",{},1,,"Ga2O3, SrCO3",,10.1016/0022-1902(68)80064-8,1968,,FALSE
Sr-Ga-O,mp-1020709,[428804],Sr5Ga6O14,0.011716482,P2_1/c,y,y,1273,1.5,,"{""step1"": {""grind method"": [""agate mortar""], ""wet/dry"": [], ""liquid"": [""acetone""]}}","{""step1"": {""cool rate"": [{""value"": ""30"", ""unit"": ""C/s""}], ""cool time"": [], ""cool medium"": [], ""cool type"": [""quench""], ""end temperature"": [""RT""], ""remark"": []}}",1,,"SrCO3, Ga2O3",,10.1016/j.jssc.2015.04.016,2015,co-exist with Sr2Ga2O5; inhomogeneous,FALSE
Sr-Ga-O,mp-4851,"[15539, 91221]",SrGa2O4,0,P2_1/c,y,y,,,,{},{},,,,,10.1016/j.jssc.2017.07.024,2017,high temperature phase of mp-554923,FALSE
Sr-Ga-O,mp-554923,[91222],SrGa2O4,0.000728506,P2_1/c,y,y,1523,2.5,,{},"{""step1"": {""cool rate"": [{""value"": ""75"", ""unit"": ""C/s""}], ""cool time"": [], ""cool medium"": [], ""cool type"": [""quench""], ""end temperature"": [""RT""], ""remark"": []}}",2,,"SrCO3, Ga2O3",,10.1006/jssc.2000.8768,2000,gamma phase,FALSE