system,mp_id,icsd_ids,composition,e_above_hull,Spacegroup Number,solid_state_synthesized_composition,solid_state_synthesized_structure,sss_highest_temperature(K),sss_pressure(GPa),sss_atmosphere,sss_mixing_condition,sss_cooling_condition,sss_heating_step,single_crystal,sss_precursor,other_synthesis_method,reference,reference_year,comment,google_translate
Sr-Ga-O,mp-18253,[10316],SrGa4O7,0,C2/c,y,y,1573,AP,,"{""step1"": {""grind method"": [""ball milling""], ""wet/dry"": [], ""liquid"": [""deionized water""]}}",{},1,,"SrCO3, Ga2O3",,10.1149/1.1825914,2005,,FALSE
Sr-Gd-O,mp-3523,"[193592, 96232, 150876]",SrGd2O4,0.011115936,Pnma,y,y,1233,AP,,{},{},1,,"SrO, GdO1.5",,10.1016/S0925-8388(02)01301-4,2003,,FALSE
Sr-Ge-O,mp-557311,[83345],Sr2GeO4,0.016631113,Pna2_1,y,y,1773,AP,,"{""step1"": {""grind method"": [""agate mortar""], ""wet/dry"": [], ""liquid"": []}}",{},1,,"SrCO3, GeO2",,10.1039/C6RA18090F,2016,doped: Eu 0.1%,FALSE
Sr-Ge-O,mp-542085,[56382],Sr2GeO4,0,P2_1/c,y,?,1500,,,{},{},1,,"SrCl2, GeO2",,"European Crystallographic Meeting 13, 197 (1991)",1991,other phase of mp-557311; insufficient information: uncertain about synthesis method,FALSE
Sr-Ge-O,mp-30950,[413385],Sr3GeO,0,Pnma,n,n,,,,{},{},,,"Sr, GeO2",from melt,10.1524/zkri.1996.211.9.607,1996,,TRUE
Sr-Ge-O,mp-9380,[82393],SrGe4O9,0,P321,y,y,1373,AP,,"{""step1"": {""grind method"": [""agate mortar""], ""wet/dry"": [], ""liquid"": []}}",{},1,,"SrCO3, GeO2",,10.1016/j.powtec.2016.01.017,2016,,FALSE
Sr-Ge-O,mp-554869,[200166],SrGeO3,0.026777233,P-1,y,y,,,,{},{},,,,,10.1016/j.jallcom.2020.157419,2011,high temperature/pressure phase of mp-17464,FALSE
Sr-Ge-O,mp-555731,[28603],SrGeO3,0.112667683,P-62m,y,?,,,,{},{},,,,,10.1107/S0108270196013960,1997,old refinement of mp-17464,FALSE
Sr-Ge-O,mp-17464,[59303],SrGeO3,0,C2/c,y,y,1323,AP,,{},{},1,,"SrCO3, GeO2",,10.1088/0953-8984/10/1/025,1998,,FALSE
Sr-Ge-O,mp-1016999,[195084],SrGeO3,0.175005191,Pm-3m,y,y,,,,{},{},,,,,10.1107/S2056989015007264,2015,high temperature/pressure phase of mp-17464,FALSE
Sr-Hf-O,mp-3721,"[164621, 161598, 89385]",SrHfO3,0.006062092,I4/mcm,y,y,,,,{},{},,,,,10.1103/PhysRevB.60.2972,1999,"high temperature phase of mp-3378; ICSD 164621, 161598 not found",FALSE
Sr-Hf-O,mp-4673,"[161596, 89384, 164622]",SrHfO3,0.004450606,Cmcm,y,y,,,,{},{},,,,,10.1103/PhysRevB.60.2972,1999,"high temperature phase of mp-3378; ICSD 164622, 161596 not found",FALSE
Sr-Hf-O,mp-4551,"[29154, 161593, 164620, 89386, 184791]",SrHfO3,0.032961875,Pm-3m,y,y,,,,{},{},,,,,10.1103/PhysRevB.60.2972,1999,"high temperature phase of mp-3378; ICSD 161593, 164620, 184791 not found",FALSE
Sr-Hf-O,mp-550908,[161595],SrHfO3,0.012869521,P4/mbm,y,?,,,,{},{},,,,,10.1016/j.ssc.2008.07.018,2008,modelling of SrHfO3,FALSE
Sr-Hf-O,mp-3378,"[184997, 161599, 162906, 164623, 89383, 86830, 162930, 187358, 84280]",SrHfO3,0,Pnma,y,y,1373,AP,,{},{},1,,"HfO2, SrCO3",,10.1103/PhysRevB.60.2972,1999,,FALSE
Sr-Hf-O,mp-13109,[161597],SrHfO3,0.002680352,Imma,y,?,,,,{},{},,,,,10.1016/j.ssc.2008.07.018,2008,modelling of SrHfO3,FALSE
Sr-Hf-O,mp-13108,[161594],SrHfO3,0.032896417,P4mm,y,?,,,,{},{},,,,,10.1016/j.ssc.2008.07.018,2008,modelling of SrHfO3,FALSE
Sr-Hg-O,mp-978857,[165068],SrHgO2,0,R-3m,y,?,,,,{},{},,,,,10.1007/978-3-540-70892-6_224,2010,other refinement of mp-28688,FALSE
Sr-Hg-O,mp-28688,[69739],SrHgO2,0.003549925,R-3m,y,y,893,0.61,O2,{},{},1,,"SrO, HgO",,10.1016/0022-5088(91)90015-V,1991,,TRUE
Sr-Ho-O,mp-559385,[246550],SrHo2O4,0.001055155,Pnma,y,y,1773,AP,,"{""step1"": {""grind method"": [""agate mortar""], ""wet/dry"": [], ""liquid"": []}}",{},1,,"SrCO3, Ho2O3",,10.1103/PhysRevB.71.144414,2004,,FALSE
Sr-In-O,mp-22512,[22029],Sr2In2O5,0.028951843,Ima2,n,n,,,,{},{},,,"SrO, In2O3",from melt,10.1002/zaac.19733950216,1973,,TRUE
Sr-In-O,mp-540688,[16241],SrIn2O4,0,Pnma,y,y,1223,AP,,"{""step1"": {""grind method"": [""agate mortar""], ""wet/dry"": [], ""liquid"": []}}",{},1,,"SrCO3, In2O3",,10.1016/j.jallcom.2004.11.009,2005,doped: Eu 1%,FALSE
Sr-Ir-O,mp-10254,"[195953, 45974]",Sr2IrO4,0.034037552,I4/mmm,y,y,,,,{},{},,,,,10.1016/j.jssc.2015.09.035,2015,high temperature phase of mp-4998,FALSE
Sr-Ir-O,mp-4998,"[193883, 195952, 90741, 41611, 78261, 78260, 78262, 41614]",Sr2IrO4,0,I4_1/acd,y,y,1373,AP,,{},"{""step1"": {""cool rate"": [], ""cool time"": [{""value"": "" serveral"", ""unit"": ""hour""}], ""cool medium"": [], ""cool type"": [], ""end temperature"": [""RT""], ""remark"": []}}",4,,"SrCO3, Ir",,10.1016/j.jssc.2015.09.035,2015,,FALSE
Sr-Ir-O,mp-9039,[72926],Sr4IrO6,0,R-3c,y,y,1373,AP,,"{""step1"": {""grind method"": [""agate mortar""], ""wet/dry"": [], ""liquid"": []}}","{""step1"": {""cool rate"": [], ""cool time"": [], ""cool medium"": [""air""], ""cool type"": [""quench""], ""end temperature"": [""RT""], ""remark"": []}}",3,,"IrO2, SrCO3",,10.1107/S0108270192012721,1993,,FALSE
Sr-Ir-O,mp-1193907,[187813],SrIrO3,0.003468296,C2/c,y,y,1323,0.03,,"{""step1"": {""grind method"": [""agate mortar""], ""wet/dry"": [], ""liquid"": []}}",{},2,,"SrCO3, IrO2",,10.1007/s40145-013-0082-9,2013,,FALSE
Sr-Mn-O,mp-18798,"[417809, 90183, 417818, 90184, 417808, 417806, 417814, 417812, 417811, 417816, 417810, 417817, 417807, 417815, 417813]",Sr2Mn2O5,0,Pbam,y,y,1523,,"air,Ar/H2",{},"{""step1"": {""cool rate"": [], ""cool time"": [], ""cool medium"": [""ice""], ""cool type"": [""quench""], ""end temperature"": [""RT""], ""remark"": []}}",3,,"SrCO3, Mn2O3",,10.1016/S0925-8388(99)00521-6,2000,,FALSE
Sr-Mn-O,mp-18978,"[26561, 26560, 50794]",Sr2MnO4,0.015054955,I4/mmm,y,y,1573,,O2,"{""step1"": {""grind method"": [""agate mortar""], ""wet/dry"": [], ""liquid"": []}}",{},1,,"SrCO3, MnO2",,10.1006/jssc.1999.8290,1999,,FALSE
Sr-Mn-O,mp-19070,"[51215, 51216, 51217]",Sr3Mn2O7,0.035735888,I4/mmm,y,y,1923,AP,,{},"{""step1"": {""cool rate"": [], ""cool time"": [], ""cool medium"": [""dry ice""], ""cool type"": [""quench""], ""end temperature"": [""RT""], ""remark"": []}}",1,,"SrCO3, MnO2",,10.1006/jssc.1998.8026,1998,,FALSE
Sr-Mn-O,mp-18998,"[40301, 92283]",Sr4Mn3O10,0.003462208,Cmce,y,y,1373,0,vacuum,{},"{""step1"": {""cool rate"": [], ""cool time"": [{""value"": ""10"", ""unit"": ""hour""}], ""cool medium"": [], ""cool type"": [], ""end temperature"": [""RT""], ""remark"": []}}",1,,"Mn2O3, SrO, Sr(NO3)2",,10.1016/S1293-2558(00)00115-1,2000,,FALSE
Sr-Mn-O,mp-603888,[159660],Sr5Mn5O13,0,P4/m,y,y,1673,,Ar,{},{},1,,"MnO2, SrCO3",,10.1021/cm703139c,2008,inhomogeneous,FALSE
Sr-Mn-O,mp-554474,[160291],Sr7Mn4O13,0.013919184,P2_1/c,n,n,,,,{},{},,,,reduction,10.1016/j.jssc.2007.08.012,2007,,FALSE
Sr-Mn-O,mp-28761,[72332],Sr7Mn4O15,0,P2_1/c,y,y,1573,AP,,{},{},2,,"SrCO3, MnO2",,10.1016/S0025-5408(00)00459-1,2000,,FALSE
Sr-Mn-O,mp-1203901,[14323],SrMn2O11,0.492244543,P2_13,?,?,,,,{},{},,,,,,,ICSD 14323 contain hydrogen,N/A
Sr-Mn-O,mp-1105343,[195757],SrMn7O12,0.001684941,Im-3,y,y,,,,{},{},,,,,10.1021/acs.inorgchem.5b01472,2015,high temperature phase of mp-1105126,FALSE
Sr-Mn-O,mp-1105126,"[252385, 252386, 195755]",SrMn7O12,0.003261491,R-3,y,y,1573,6,,{},"{""step1"": {""cool rate"": [], ""cool time"": [], ""cool medium"": [], ""cool type"": [""quench""], ""end temperature"": [""RT""], ""remark"": []}}",1,,"SrMnO3, Mn2O3",,10.1021/acs.inorgchem.5b01472,2015,,FALSE
Sr-Mn-O,mp-559975,[157936],SrMnO3,0,C222_1,y,y,1273,AP,,{},{},2,,"SrCO3, Mn2O3",,10.1103/PhysRevB.75.104417,2006,4H-phase,FALSE
Sr-Mn-O,mp-19001,"[157935, 202615, 188416]",SrMnO3,0.003063651,P6_3/mmc,y,y,,,,{},{},,,,,10.1103/PhysRevB.75.104417,2006,high temperature phase of mp-559975,FALSE
Sr-Mn-O,mp-1193101,[185417],SrMnO3,0.015045542,P6_3/mmc,y,y,,,,{},{},,,,,10.1103/PhysRevB.84.094438,2011,high temperature/pressure phase of mp-559975; 6H-phase,FALSE
Sr-Mn-O,mp-1017466,"[236949, 188415]",SrMnO3,0.049247349,Pm-3m,y,y,,,,{},{},,,,,10.1016/j.jssc.2012.01.018,2012,other phase of mp-559975,FALSE
Sr-Mo-O,mp-19237,[152123],Sr2MoO4,0.021047968,I4/mmm,y,y,1273,0,vacuum,{},{},1,,"SrO, MoO2",,10.1515/znb-1998-0119,1998,inhomogeneous,TRUE
Sr-Mo-O,mp-15096,[80470],SrMo5O8,0.261843038,P2_1/c,y,y,2493,,,{},"{""step1"": {""cool rate"": [{""value"": ""100"", ""unit"": ""C/h""}], ""cool time"": [], ""cool medium"": [], ""cool type"": [], ""end temperature"": [{""value"": ""1300"", ""unit"": ""K""}], ""remark"": []}, ""step2"": {""cool rate"": [], ""cool time"": [], ""cool medium"": [], ""cool type"": [""furnace cool""], ""end temperature"": [""RT""], ""remark"": []}}",1,y,"SrMoO4, MoO3, Mo",,10.1107/S0108270193006535,1994,,FALSE
Sr-Mo-O,mp-18747,"[187482, 174206, 174207, 71994, 174208]",SrMoO3,0.087233881,Pm-3m,y,y,1223,,H2/N2,"{""step1"": {""grind method"": [""agate mortar""], ""wet/dry"": [], ""liquid"": [""acetone""]}}",{},3,,"MoO3, SrCO3",,10.1016/j.jssc.2009.11.005,2010,ICSD 187482 not found,FALSE
Sr-Mo-O,mp-1078716,[174205],SrMoO3,0.13763022,Imma,y,y,,,,{},{},,,,,10.1016/j.jssc.2009.11.005,2010,low temperature phase of mp-18747,FALSE
Sr-Mo-O,mp-18834,"[194081, 194080, 193794, 239418, 23700, 173122, 28025, 173125, 99089, 173120, 245803, 248458, 245802, 250491]",SrMoO4,0,I4_1/a,y,y,1473,AP,,"{""step1"": {""grind method"": [""agate mortar""], ""wet/dry"": [], ""liquid"": []}}",{},2,,"MoO3, SrCO3",,10.1016/j.materresbull.2016.03.015,2016,excess MoO3,FALSE
Sr-Nb-O,mp-15590,[40803],Sr2Nb2O7,0.001088114,Pna2_1,y,?,,,,{},{},,,,,10.1016/0022-1902(75)80297-1,1975,might be other phase or refinement of mp-3870,FALSE
Sr-Nb-O,mp-3870,"[281135, 187]",Sr2Nb2O7,0,Cmc2_1,y,y,1370,AP,,{},{},1,,"SrCO3, Nb2O5",,10.1021/jp9919056,2000,,FALSE
Sr-Nb-O,mp-22772,"[42007, 71859]",Sr2Nb5O9,0.038359,P4/mmm,y,y,1523,0,vacuum,{},"{""step1"": {""cool rate"": [], ""cool time"": [], ""cool medium"": [""air""], ""cool type"": [""quench""], ""end temperature"": [""RT""], ""remark"": []}}",1,,"Nb2O5, Nb, Sr5Nb4O15",,10.3891/acta.chem.scand.44-0222,1990,,FALSE
Sr-Nb-O,mp-28940,[79217],Sr4Nb2O9,0,P-3,y,y,1373,,Ar,{},{},1,,"SrCO3, NbO2",,10.1016/0925-8388(94)01461-2,1995,,FALSE
Sr-Nb-O,mp-561133,[79218],Sr5Nb4O15,0.01977096,C2/m,y,y,1373,,Ar,{},{},1,,"SrCO3, NbO2",,10.1016/0925-8388(94)01461-2,1995,,FALSE
Sr-Nb-O,mp-760083,[48207],Sr5Nb5O16,0.054559806,Pmn2_1,n,n,,,,{},{},,,,plasma synthesis,10.1016/0010-8545(92)80074-2,1992,,FALSE
Sr-Nb-O,mp-1203589,[79699],Sr5Nb5O17,0.00096107,Pnn2,n,?,,,,{},{},,,,,10.1107/S0108768197019642,1998,old refinement of mp-505228,FALSE
Sr-Nb-O,mp-505228,[54058],Sr5Nb5O17,0,Pnnm,n,n,,,,{},{},,,"SrCO3, Nb2O5",from melt,10.1063/1.3510585,2010,,FALSE
Sr-Nb-O,mp-541049,[47179],Sr7Nb6O21,0,R-3,n,n,,,,{},{},,,"SrCO3, Nb2O5, Nb",laser,10.1002/zaac.19855230410,1985,,TRUE
Sr-Nb-O,mp-4591,"[60782, 20348]",SrNb2O6,0,P2_1/c,y,y,1473,AP,,{},{},2,,"SrCO3, Nb2O5",,10.3891/acta.chem.scand.40a-0467,1986,,FALSE
Sr-Nb-O,mp-617266,[79355],SrNb4O6,0.026700252,P4/mmm,?,?,1943,,Ar,{},"{""step1"": {""cool rate"": [{""value"": ""240"", ""unit"": ""C/h""}], ""cool time"": [], ""cool medium"": [], ""cool type"": [], ""end temperature"": [{""value"": ""1000"", ""unit"": ""C""}], ""remark"": []}, ""step2"": {""cool rate"": [], ""cool time"": [], ""cool medium"": [], ""cool type"": [""furnace cool""], ""end temperature"": [""RT""], ""remark"": []}}",1,,"Sr5Nb4O15, Nb2O5, Nb",,10.1006/jssc.1995.1047,1995,uncertain phase percentage,FALSE
Sr-Nb-O,mp-14482,[60783],SrNb6O16,0.025164224,Amm2,?,?,,,,{},{},,,,,10.3891/acta.chem.scand.40a-0467,1986,uncertain phase percentage,FALSE
Sr-Nb-O,mp-3790,"[202674, 202673]",SrNb8O14,0,Pbam,y,y,1223,AP,,{},{},1,,"NbO, Nb, SrNb2O6",,10.1016/0022-5088(88)90169-5,1988,,FALSE
Sr-Nb-O,mp-10339,[88723],SrNbO3,0.00777717,Pnma,y,y,1823,,Ar,{},{},1,,"Nb, Nb2O5, Sr5Nb4O15",,10.1006/jssc.1999.8357,1999,,FALSE
Sr-Nb-O,mp-7006,[42004],SrNbO3,0.0134719,Pm-3m,y,?,,,,{},{},,,,,10.1006/jssc.1999.8357,1999,might be other phase or off-stoichiometric phase of mp-10339 ,FALSE
Sr-Ni-O,mp-18898,[40469],SrNi4O8,0.003043077,R-3m,n,n,,,,{},{},,,,ion exchange,"Kristallografiya 29, 450 (1984)",1984,from abstract,FALSE
Sr-Ni-O,mp-19190,[36123],SrNiO2,0.175800369,Cmcm,?,?,,,,{},{},,,,,10.1039/DT9750001055,1975,insufficient information: no synthesis information,FALSE
Sr-Os-O,mp-556809,[67821],Sr11Os4O24,0,I4_1/a,n,n,,,,{},{},,,"SrO, Os, KO2",flux,10.1002/zaac.19936191019,1993,,FALSE
Sr-Os-O,mp-1105153,"[239451, 239450, 237731, 237732]",SrOsO3,0.064099488,Pnma,y,y,1773,6,,{},"{""step1"": {""cool rate"": [], ""cool time"": [], ""cool medium"": [], ""cool type"": [""quench""], ""end temperature"": [""RT""], ""remark"": []}}",1,,"SrO, OsO2",,10.1021/ja4074408,2013,"conflicting information: ICSD 237732 refers to CaOsO3, but the paper contains information of SrOsO3 as well",FALSE
Sr-Pb-O,mp-20944,"[4418, 16806]",Sr2PbO4,0,Pbam,y,y,1173,AP,,{},{},1,,"PbO, SrCO3",,10.1007/BF00646570,1965,,TRUE
Sr-Pb-O,mp-19944,[100790],Sr3PbO,0,Pm-3m,n,n,,,,{},{},,,,from melt,10.1016/0025-5408(80)90200-7,1980,,TRUE
Sr-Pb-O,mp-20489,"[4121, 78682]",SrPbO3,0,Pnma,y,y,1173,,O2,"{""step1"": {""grind method"": [""mixed""], ""wet/dry"": [], ""liquid"": [""ethanol""]}}","{""step1"": {""cool rate"": [], ""cool time"": [{""value"": ""15"", ""unit"": ""hour""}], ""cool medium"": [], ""cool type"": [], ""end temperature"": [""RT""], ""remark"": []}}",3,,"PbO, SrCO3",,10.1016/0038-1098(95)00334-7,1995,,FALSE
Sr-Pd-O,mp-4359,"[95214, 31961, 16536]",Sr2PdO3,0,Immm,y,y,1173,AP,,"{""step1"": {""grind method"": [""agate mortar""], ""wet/dry"": [], ""liquid"": []}}",{},2,,"SrCO3, PdO",,10.1016/S0925-8388(02)00515-7,2002,,FALSE
Sr-Pd-O,mp-29775,[88135],Sr4PdO6,0,R-3c,y,y,1248,10,,{},"{""step1"": {""cool rate"": [], ""cool time"": [], ""cool medium"": [], ""cool type"": [""quench""], ""end temperature"": [""RT""], ""remark"": []}}",1,,"Sr2PdO3, SrO, KClO3",,10.1016/S0925-8388(99)00008-0,1999,,FALSE
Sr-Pd-O,mp-7561,[16537],SrPd3O4,0,Pm-3n,y,y,1093,0.02,O2,{},{},1,,"Sr(OH)2, Pd",,10.1021/ba-1971-0098.ch003,1971,excess Sr(OH)2,FALSE
Sr-Pr-O,mp-19975,"[237190, 90366, 237185]",Sr2PrO4,0.056637097,Pbam,y,y,1273,AP,,{},{},1,,"Pr6O11, SrCO3",,10.1016/S0925-8388(00)00785-4,2000,,FALSE
Sr-Pr-O,mp-20464,"[84882, 85816]",SrPrO3,0.142370745,Pnma,y,y,1573,,O2,"{""step1"": {""grind method"": [""agate mortar""], ""wet/dry"": [], ""liquid"": []}}",{},3,,"Pr6O11, SrCO3",,10.1016/S0925-8388(97)00241-7,1998,,FALSE
Sr-Pt-O,mp-4598,"[89329, 26490]",Sr4PtO6,0,R-3c,y,y,1373,AP,,"{""step1"": {""grind method"": [""agate mortar""], ""wet/dry"": [], ""liquid"": []}}","{""step1"": {""cool rate"": [], ""cool time"": [], ""cool medium"": [""air""], ""cool type"": [""quench""], ""end temperature"": [""RT""], ""remark"": []}}",3,,"SrCO3, IrO2",,10.1107/S0108270192012721,1993,,FALSE
Sr-Pu-O,mp-8146,[31974],SrPuO4,0,R-3m,y,y,1473,,O2,{},{},2,,"SrO, PuO2",,10.5445/IR/270000505,1962,,TRUE
Sr-Re-O,mp-29908,[90929],Sr11Re4O24,0,I4_1/a,y,y,1073,AP,,"{""step1"": {""grind method"": [""agate mortar""], ""wet/dry"": [], ""liquid"": []}}","{""step1"": {""cool rate"": [], ""cool time"": [], ""cool medium"": [], ""cool type"": [""furnace cool""], ""end temperature"": [""RT""], ""remark"": []}}",1,,"SrO, ReO3",,10.1006/jssc.1999.8493,2000,,FALSE
Sr-Re-O,mp-555428,[72869],Sr5Re2O12,0,R-3c,y,y,1273,,"air,vacuum",{},{},2,,"Sr(ReO4)2·2H2O, SrO",,10.1016/0022-4596(92)90299-B,1992,,FALSE
Sr-Re-O,mp-30165,[93804],Sr7Re4O19,0.00929273,C2/m,y,y,1073,0,vacuum,"{""step1"": {""grind method"": [""agate mortar""], ""wet/dry"": [], ""liquid"": []}}","{""step1"": {""cool rate"": [], ""cool time"": [], ""cool medium"": [], ""cool type"": [""quench""], ""end temperature"": [""RT""], ""remark"": []}}",1,,"SrO, ReO3",,10.1006/jssc.2001.9182,2001,,FALSE
Sr-Rh-O,mp-757102,[239357],Sr2RhO4,0,I4_1/acd,y,y,1373,,O2,{},{},3,,"SrCO3, Rh",,10.1016/j.solidstatesciences.2015.09.009,2015,,FALSE
Sr-Rh-O,mp-1077875,[239358],Sr2RhO4,0.02566692,I4/mmm,y,y,,,,{},{},,,,,10.1016/j.solidstatesciences.2015.09.009,2015,high temperature phase of mp-757102,FALSE
Sr-Rh-O,mp-557481,[109297],Sr4RhO6,0,R-3c,y,y,1523,,O2,{},{},4,,"SrCO3, Rh2O3",,10.1103/PhysRevB.92.180413,2015,,FALSE
Sr-Rh-O,mp-4048,[93117],Sr6Rh5O15,0.000423003,R32,y,?,,,,{},{},,,,,10.1021/ja011071g,2001,other refinement of mp-561047,FALSE
Sr-Rh-O,mp-561047,[85616],Sr6Rh5O15,0,R32,y,y,1423,AP,,{},{},2,,"SrCO3, Rh",,10.1021/cm980324a,1998,,FALSE
Sr-Rh-O,mp-1017441,[187483],SrRhO3,0.091175776,Pm-3m,y,?,,,,{},{},,,,,10.4236/jmp.2011.28095,2011,modelling of cubic perovskite SrRhO3; orthorhombic SrRhO3 has been synthesized via high pressure solid state synthesis: 10.1103/PhysRevB.64.224424,FALSE
Sr-Ru-O,mp-1079784,[248351],SrRu2O6,0,P-31m,n,n,,,,{},{},,,"KRuO4, SrO2, H2O",hydrothermal,10.1002/anie.201310110,2014,,FALSE
Sr-Ru-O,mp-29683,[50707],Sr2Ru3O10,0.032940187,C2/m,n,n,,,,{},{},,,"Sr(OH)2·8H2O, RuO2, MnPO4·H2O",hydrothermal,10.1006/jssc.1998.8105,1999,,FALSE
Sr-Ru-O,mp-4596,"[84484, 94191, 41609, 41610, 78630, 78285, 94194, 78631, 94193, 41607, 33802, 78629, 94184, 75151, 82898, 41604, 94200, 78286, 157401, 94189, 83110, 75152, 94188, 94197, 94199, 94185, 188554, 83109, 94198, 90737, 94192, 94195, 83111, 41606, 94186, 41608, 41605, 73395, 94187, 94196, 73394, 94190]",Sr2RuO4,0,I4/mmm,y,y,1573,AP,,{},{},2,,"SrCO3, Ru",,10.1016/0921-4534(96)00324-3,1996,,FALSE
Sr-Ru-O,mp-559909,[151471],Sr3Ru2O7,0.008761231,Ccce,y,y,1573,AP,,{},"{""step1"": {""cool rate"": [], ""cool time"": [{""value"": ""673"", ""unit"": ""K""}], ""cool medium"": [], ""cool type"": [], ""end temperature"": [{""value"": ""673"", ""unit"": ""K""}], ""remark"": []}, ""step2"": {""cool rate"": [], ""cool time"": [], ""cool medium"": [""air""], ""cool type"": [""quench""], ""end temperature"": [""RT""], ""remark"": []}}",3,,"SrCO3, RuO2",,10.1103/PhysRevB.62.8725,2000,experimental details in 10.1006/jssc.2000.8796,FALSE
Sr-Ru-O,mp-5868,"[56577, 33803, 83189]",Sr3Ru2O7,0.024285086,I4/mmm,y,?,,,,{},{},,,,,10.1143/JPSJ.73.639,2003,old refinement of mp-559909,FALSE
Sr-Ru-O,mp-680680,[96729],Sr4Ru3O10,0.008190018,Cmce,y,y,1723,,O2,{},{},1,,"SrCO3, RuO2",,10.1016/S0921-5107(03)00195-8,2003,,FALSE
Sr-Ru-O,mp-1079352,[180910],SrRuO3,0.020184173,Cmcm,y,?,,,,{},{},,,,,10.1016/j.ssc.2011.02.031,2011,modelling of high pressure phase SrRuO3,FALSE
Sr-Ru-O,mp-4525,[86940],SrRuO3,0.010988465,I4/mcm,y,y,,,,{},{},,,,,10.1016/S0921-4526(97)00587-5,1998,high temperature phase of mp-22390,FALSE
Sr-Ru-O,mp-1192792,"[82977, 82978]",SrRuO3,4.155443582,Pnma,y,?,,,,{},{},,,,,10.4028/www.scientific.net/MSF.228-231.789,1996,might be other refinement of mp-22390,FALSE
Sr-Ru-O,mp-22390,"[193855, 190462, 180909, 154896, 86939, 65691, 247468, 190464, 78317, 180908, 157113, 78628, 154894, 157116, 84279, 190463, 157117, 56697, 82977, 75561, 154895, 82978, 180907, 78627, 97368]",SrRuO3,0.000879804,Pnma,y,y,1423,AP,,"{""step1"": {""grind method"": [""agate mortar""], ""wet/dry"": [], ""liquid"": []}}",{},2,,"SrCO3, RuO2",,10.1063/1.4904853,2014,,FALSE
Sr-Ru-O,mp-611033,[261369],SrRuO3,0.486758517,Pnma,y,?,,,,{},{},,,,,10.1016/j.jssc.2011.01.007,2011,modelling of mp-22390,FALSE
Sr-Ru-O,mp-4346,"[82982, 187484, 82983, 69360, 157118, 86941, 261370, 82984, 162777, 82981]",SrRuO3,0.037396136,Pm-3m,y,y,,,,{},{},,,,,10.1016/S0921-4526(97)00587-5,1998,"high temperature phase of mp-22390; ICSD 157118, 187484, 261370 not found",FALSE
Sr-Sb-O,mp-9126,[74540],SrSb2O6,0,P-31m,y,y,1423,AP,,"{""step1"": {""grind method"": [""agate mortar""], ""wet/dry"": [], ""liquid"": []}}","{""step1"": {""cool rate"": [], ""cool time"": [], ""cool medium"": [], ""cool type"": [], ""end temperature"": [""RT""], ""remark"": []}}",2,,"Sb2O5, SrCO3",,10.1016/j.saa.2016.06.049,2016,,FALSE
Sr-Sb-O,mp-4103,"[77062, 62960]",Sr2Sb2O7,0,Imma,y,y,1173,AP,,"{""step1"": {""grind method"": [""agate mortar""], ""wet/dry"": [], ""liquid"": []}}",{},2,,"SrCO3, Sb2O3",,10.1107/S0108270188000204,1988,,FALSE
Sr-Sb-O,mp-1197996,[425765],Sr5Sb22O38,0,P2_1/c,n,n,,,,{},{},,,"Sb2O3, KF, Sr(OH)2·8H2O, H2O",hydrothermal,10.1016/j.jssc.2013.04.011,2013,,FALSE
Sr-Se-O,mp-28346,[60933],SrSe2O5,0,P-1,n,n,,,,{},{},,,"SrCO3, H2SeO5, H2O2, H2O",hydrothermal,10.1107/S0108270187096513,1987,,FALSE