system,mp_id,icsd_ids,composition,e_above_hull,Spacegroup Number,solid_state_synthesized_composition,solid_state_synthesized_structure,sss_highest_temperature(K),sss_pressure(GPa),sss_atmosphere,sss_mixing_condition,sss_cooling_condition,sss_heating_step,single_crystal,sss_precursor,other_synthesis_method,reference,reference_year,comment,google_translate
Na-Al-O,mp-31008,[38063],Na14Al4O13,0,P2_1/c,y,y,953,,,{},"{""step1"": {""cool rate"": [{""value"": ""10"", ""unit"": ""C/h""}], ""cool time"": [], ""cool medium"": [], ""cool type"": [], ""end temperature"": [""RT""], ""remark"": []}}",1,y,"Na2O, Al2O3",,10.1002/zaac.19835071219,1983,excess Na2O,TRUE
Na-Al-O,mp-559916,[32600],Na17Al5O16,0.001761211,Cm,y,y,973,,Ar,{},{},1,,"Na2O, Al2O3",,10.1039/C39820000516,1982,,FALSE
Na-Al-O,mp-13998,[26406],Na5AlO4,0,Pbca,y,y,973,,,{},{},1,,"Na2O, Al2O3",,10.1039/C39810000379,1981,,FALSE
Na-Al-O,mp-556168,[26405],Na7Al3O8,0,P-1,y,y,973,,,{},{},1,,"Na2O, Al2O3",,10.1039/C39810000379,1981,,FALSE
Na-Al-O,mp-3405,"[60635, 34905, 16933, 67545, 15970]",NaAl11O17,0,P6_3/mmc,y,y,1623,AP,,"{""step1"": {""grind method"": [""agate mortar""], ""wet/dry"": [], ""liquid"": []}}","{""step1"": {""cool rate"": [], ""cool time"": [], ""cool medium"": [], ""cool type"": [], ""end temperature"": [""RT""], ""remark"": []}}",2,,"Na2CO3, Al2O3",,10.1016/j.jlumin.2016.06.028,2016,,FALSE
Na-Al-O,mp-7748,[22216],NaAlO2,0.06505915,R-3m,y,y,,,,{},{},,,,,10.1021/ic50061a011,1968,alpha phase; high temperature/pressure phase of mp-9212,FALSE
Na-Al-O,mp-9212,[79404],NaAlO2,0,Pna2_1,y,y,1273,AP,,{},{},2,,"Al2O3, Na2C2O4",,10.1021/ic50061a011,1968,beta phase,FALSE
Na-As-O,mp-1197347,[62073],NaAs2O4,0.196811683,C2/c,?,?,,,,{},{},,,,,,,ICSD 62073 contain hydrogen,N/A
Na-As-O,mp-1180233,[30534],NaAs2O6,0.118932754,P2_1/c,?,?,,,,{},{},,,,,,,ICSD 30534 contain hydrogen,N/A
Na-As-O,mp-504953,[62963],Na2As4O11,0.012544097,C2/c,?,?,,,,{},{},,,,,10.1107/S0108270188000150,1988,insufficent information: papers either don't mention synthesis or not accessible,FALSE
Na-As-O,mp-27197,[2887],Na4As2O7,0,C2/c,n,n,,,,{},{},,,Na2HAsO4·7H2O,from melt,10.1139/v73-311,1973,,FALSE
Na-As-O,mp-17816,[411721],Na5AsO5,0.003393929,Pbcm,y,y,773,,Ar,{},{},1,,"Na2O, Na4As2O7",,10.1002/1521-3749(200105)627:5<1013::AID-ZAAC1013>3.0.CO;2-C,2001,,TRUE
Na-As-O,mp-3468,"[59813, 413148]",NaAsO2,0,Pbca,y,y,773,,Ar,{},"{""step1"": {""cool rate"": [{""value"": ""5"", ""unit"": ""C/h""}], ""cool time"": [], ""cool medium"": [], ""cool type"": [], ""end temperature"": [""RT""], ""remark"": []}}",1,,"Na, As2O3",,znaturforsch.com/ab/v58b/s58b0620.pdf,2003,,TRUE
Na-As-O,mp-556145,[16762],NaAsO2,0.001905841,Pbca,y,?,,,,{},{},,,,,10.1107/S0365110X58001985,1958,might be old refinement of mp-3468,FALSE
Na-As-O,mp-17868,[16654],NaAsO3,0.002134136,P-1,n,n,,,,{},{},,,NaH2AsO4,decomposition,10.1107/S0365110X56002199,1956,,TRUE
Na-Au-O,mp-28365,[62066],Na3AuO2,0,P4_2/mnm,y,y,703,,,{},{},1,y,"NaAu, Na2O2",,10.1002/zaac.19875490604,1987,from abstract,FALSE
Na-Au-O,mp-20343,[409547],NaAuO2,0.026327041,Cmcm,y,y,653,,,{},{},1,,"NaAu2, Na, Na2O2",,10.1524/ncrs.2001.216.14.348,2001,,FALSE
Na-Be-O,mp-28559,[65247],Na6Be8O11,0,P-1,y,y,873,AP,,{},"{""step1"": {""cool rate"": [{""value"": ""50"", ""unit"": ""C/dary""}], ""cool time"": [], ""cool medium"": [], ""cool type"": [], ""end temperature"": [""RT""], ""remark"": []}}",1,,"BeO, Na2O",,10.1002/zaac.19885640108,1988,,TRUE
Na-Bi-O,mp-27914,[23347],Na3BiO3,0,I-43m,y,y,823,,,{},{},2,,"Bi2O3, Na2O",,10.1002/zaac.19804680117,1980,,TRUE
Na-Bi-O,mp-27345,[10319],Na3BiO4,0,P2/c,?,?,,,,{},{},,,,,www.researchgate.net/profile/Ahmad_Masadeh/publication/228741349_The_real_structure_of_Na3BiO4_by_electron_microscopy_HR-XRD_and_PDF_analysis/links/0c96051af164d06581000000.pdf,2005,alpha phase; insufficent information: paper mentioned the original paper used solid state reaction to synthesize the alpha phase,FALSE
Na-Bi-O,mp-22984,"[173624, 10317]",NaBiO2,0,C2/c,y,y,873,,Ar,{},{},1,,"Na2O, Bi2O3",,10.1002/zaac.19723910312,1972,,TRUE
Na-Bi-O,mp-23054,"[5313, 27553, 91776]",NaBiO3,0,R-3,n,n,,,,{},{},,,NaBiO3·xH2O,decomposition,10.1016/S0025-5408(00)00453-0,2000,,FALSE
Na-Cd-O,mp-27559,[2195],Na14Cd2O9,0,P-3,y,y,673,,,{},{},1,,"Na2O, CdO",,10.1002/zaac.19784410109,1978,,TRUE
Na-Co-O,mp-22474,"[55674, 55673, 155492, 155491]",NaCo2O4,0.038759658,Pmmn,y,n,,,,{},{},,,"Na0.75CoO2, I2, acetonitrile",solution method,10.1103/PhysRevB.73.134401,2006,"other phase of NaCo2O4, which can be synthesized via solid state synthesis: 10.1016/S0925-8388(00)01277-9",FALSE
Na-Co-O,mp-562435,"[10064, 10499, 85633]",Na10Co4O9,0,P-1,y,y,823,,Ar,{},{},1,,"CoO, Na2O, Na",,10.1021/cm9802907,1998,excess Na2O,FALSE
Na-Co-O,mp-1203207,[167343],Na2Co3O6,0.043306107,R-3c,y,y,973,,O2,{},{},1,,"Co3O4, Na2CO3",,10.1103/PhysRevB.80.224106,2009,,FALSE
Na-Co-O,mp-28824,[73211],Na3CoO2,0.000171056,P4_2/mnm,y,y,773,,,{},{},1,,"Na2O, CoO",,10.1002/zaac.19936190520,1993,from abstract,FALSE
Na-Co-O,mp-31126,[99580],Na3CoO3,0.145704231,P-1,y,y,823,,Ar,{},{},1,,"NaN3, NaNO3, Co3O4",,10.1016/j.jssc.2004.03.036,2004,,FALSE
Na-Co-O,mp-18846,"[162855, 162856, 162857]",Na4Co7O14,0,P6_3/m,n,n,,,,{},{},,,Na0.7CoO2,desodiation ,10.1007/s11664-010-1238-9,2010,,FALSE
Na-Co-O,mp-18762,"[10473, 10501, 85632]",Na4CoO3,0.081878212,Cc,y,y,823,,Ar,{},{},1,,"CoO, Na2O, Na",,10.1021/cm9802907,1998,,FALSE
Na-Co-O,mp-561875,[413025],Na5Co2O5,0.191284778,C2/c,y,y,823,,Ar,"{""step1"": {""grind method"": [""ball milling""], ""wet/dry"": [], ""liquid"": []}}",{},1,,"NaN3, NaNO3, Co3O4",,10.1002/anie.200351506,2003,,FALSE
Na-Co-O,mp-21792,[14180],Na5CoO4,0,Pbca,y,y,773,,Ar,{},{},1,,"NaN3, NaNO3, Co3O4",,10.1007/BF01086301,2004,,FALSE
Na-Co-O,mp-19427,"[414127, 414128]",Na7Co2O6,0.000591939,C2/c,y,y,723,,Ar,"{""step1"": {""grind method"": [""ball milling""], ""wet/dry"": [], ""liquid"": []}}",{},1,,"NaN3, NaNO3, Co3O4",,10.1016/j.solidstatesciences.2004.07.013,2004,,FALSE
Na-Co-O,mp-510308,[99917],Na9Co2O7,0.083135344,Pca2_1,y,y,723,,Ar,"{""step1"": {""grind method"": [""ball milling""], ""wet/dry"": [], ""liquid"": []}}",{},1,,"NaN3, NaNO3, Co3O4",,10.1016/j.solidstatesciences.2003.12.013,2004,,FALSE
Na-Co-O,mp-867515,[246585],NaCoO2,0.011427754,P6_3/mmc,y,n,,,,{},{},,,,wet synthesis,10.1103/PhysRevB.70.184110,2004,other phase of mp-18921,FALSE
Na-Co-O,mp-18921,"[96428, 6152]",NaCoO2,0,R-3m,y,y,773,AP,,{},{},1,,"Na2O2, Co3O4",,10.1016/0022-4596(86)90213-6,1986,,FALSE
Na-Cr-O,mp-704459,[2771],Na2Cr2O7,0,P-1,n,n,,,,{},{},,,Na2Cr2O7·2H2O,decomposition,10.1107/S0567740872004297,1972,beta phase,FALSE
Na-Cr-O,mp-696217,[2534],Na2Cr2O7,0.004556734,P-1,n,n,,,,{},{},,,,,10.1107/S056774087300350X,1973,alpha phase; high temperature phase of mp-704459,FALSE
Na-Cr-O,mp-18779,"[26330, 76001, 159511]",Na2CrO4,0,Cmcm,n,n,,,,{},{},,,"Na2CrO4, H2O",evaporation,10.1107/S056774088100318X,1981,,FALSE
Na-Cr-O,mp-18884,[62676],Na4CrO4,0.005700641,P-1,y,y,683,0,vacuum,{},{},1,,"NaCrO2, Na2O",,10.1039/DT9750002487,1975,inhomogeneous,FALSE
Na-Cr-O,mp-19280,"[82620, 246523]",NaCr3O8,0,C2/m,y,y,573,AP,,{},{},3,,"CrO3, NaNO3, Cr(NO3)3·9H2O",,10.1016/S0022-3697(96)00079-0,1996,ICSD 246523 not found,FALSE
Na-Cr-O,mp-578604,"[182235, 108817, 24595]",NaCrO2,0,R-3m,y,y,873,,Ar;vacuum,{},{},1,,"Na2O, Cr2O3",,10.1039/DT9750002487,1975,inhomogeneous,FALSE
Na-Cu-O,mp-505090,"[169714, 67558, 169713]",NaCu2O2,0,Pnma,y,y,923,,,{},"{""step1"": {""cool rate"": [{""value"": ""40"", ""unit"": ""C/h""}], ""cool time"": [], ""cool medium"": [], ""cool type"": [], ""end temperature"": [""RT""], ""remark"": []}}",1,,"Na2O2, Cu2O",,10.1016/0925-8388(92)90714-K,1992,,TRUE
Na-Cu-O,mp-1200359,[422749],Na12Cu7O14,0.017223857,Cm,?,?,,,,{},{},,,,,10.1524/zkri.2011.1402,2011,modelling of Na12Cu7O14,FALSE
Na-Cu-O,mp-1079427,[422751],Na2CuO2,0.074356392,P2_1/m,?,?,,,,{},{},,,,,10.1524/zkri.2011.1402,2011,modelling of Na2CuO2,FALSE
Na-Cu-O,mp-559817,[415348],Na3Cu2O4,0,P2_1/c,y,y,943,,Ar,"{""step1"": {""grind method"": [""ball milling""], ""wet/dry"": [], ""liquid"": []}}",{},1,,"NaN3, NaNO3, CuO",,10.1016/j.jssc.2005.09.023,2005,,FALSE
Na-Cu-O,mp-28556,[65237],Na3CuO3,0,Cmce,y,y,923,,Ar,{},{},1,y,"NaCuO2, Na2O",,10.1002/zaac.19885630112,1988,,TRUE
Na-Cu-O,mp-556538,[415349],Na8Cu5O10,0.00468909,Cm,y,y,943,,Ar,"{""step1"": {""grind method"": [""ball milling""], ""wet/dry"": [], ""liquid"": []}}",{},1,,"NaN3, NaNO3, CuO",,10.1016/j.jssc.2005.09.023,2005,,FALSE
Na-Cu-O,mp-1008867,[188528],NaCuO,0.539694185,F-43m,y,?,,,,{},{},,,,,10.1016/j.ssc.2012.10.016,2013,modelling of cubic NaCuO,FALSE
Na-Cu-O,mp-7469,"[15099, 40157, 49756, 188521]",NaCuO,0,I4/mmm,y,y,773,,Ar,{},{},2,,"NaN3, CuO",,10.1016/j.jssc.2004.05.041,2004,ICSD 188521 not found,FALSE
Na-Cu-O,mp-4541,"[15098, 203080, 80561]",NaCuO2,0.007689299,C2/m,y,y,673,AP,,{},{},1,,"Na2O2, CuO",,10.1016/0022-4596(89)90047-9,1989,excess Na2O2,FALSE
Na-Er-O,mp-11601,[97544],NaErO2,0.000693484,R-3m,y,y,1273,AP,,"{""step1"": {""grind method"": [""agate mortar""], ""wet/dry"": [], ""liquid"": []}}","{""step1"": {""cool rate"": [], ""cool time"": [], ""cool medium"": [], ""cool type"": [""quench""], ""end temperature"": [""RT""], ""remark"": []}}",1,,"Er2O3, Na2CO3",,10.1016/j.jssc.2003.08.001,2003,other phase of mp-5586; requies quenching instead of slow cooling,FALSE
Na-Er-O,mp-5586,"[97543, 2739]",NaErO2,0,C2/c,y,y,1273,AP,,"{""step1"": {""grind method"": [""agate mortar""], ""wet/dry"": [], ""liquid"": []}}","{""step1"": {""cool rate"": [], ""cool time"": [], ""cool medium"": [], ""cool type"": [""slow cooling""], ""end temperature"": [""RT""], ""remark"": []}}",1,,"Er2O3, Na2CO3",,10.1016/j.jssc.2003.08.001,2003,,FALSE
Na-Fe-O,mp-19044,[50478],Na2FeO4,0.062052696,Cmcm,n,n,,,,{},{},,,K2FeO4,ion exchange,10.1002/(SICI)1521-3749(1998110)624:11<1846::AID-ZAAC1846>3.0.CO;2-X,1998,,TRUE
Na-Fe-O,mp-540658,[14353],Na3Fe5O9,0.008413756,C2/c,y,y,1373,AP,,{},{},1,,"Na2CO3, Fe2O3",,10.1107/S0365110X67001537,1967,excess Na2CO3,FALSE
Na-Fe-O,mp-1244517,[413270],Na3FeO3,0.224798511,P1,y,?,,,,{},{},,,,,10.1016/j.solidstatesciences.2005.08.023,2006,alpha phase; other phase of mp-558570; insufficient information: role of CdO,FALSE
Na-Fe-O,mp-558570,[171376],Na3FeO3,0,Cc,y,y,723,,Ar,"{""step1"": {""grind method"": [""ball milling""], ""wet/dry"": [], ""liquid"": []}}",{},1,,"NaN3, NaNO3, Fe2O3",,10.1016/j.solidstatesciences.2005.08.023,2006,beta phase,FALSE
Na-Fe-O,mp-19396,"[2479, 1025]",Na4Fe2O5,0.755986352,P2_1/c,y,y,873,,,{},{},1,,"Na2O2, Fe2O3",,10.1007/BF00438305,1977,,TRUE
Na-Fe-O,mp-19026,"[1410, 23635]",Na4FeO3,0.003586794,Cc,y,y,1173,,,{},{},1,,"Na2O, Fe0.96O",,10.1007/BF00606284,1974,,TRUE
Na-Fe-O,mp-19022,"[59585, 89702]",Na4FeO4,0.147763577,P-1,y,y,673,0,vacuum,{},{},1,,"Na2O2, FeO",,10.1006/jssc.2002.9520,2002,,FALSE
Na-Fe-O,mp-13745,[2485],Na5FeO4,0.006377763,Pbca,y,y,923,,,{},{},1,,"Na2O, Fe2O3",,10.1007/BF00623279,1975,,TRUE
Na-Fe-O,mp-18917,"[1118, 2478]",Na7Fe3O8,0.020398497,P-1,y,y,873,,,{},{},1,,"Na2O2, Fe2O3",,10.1002/ange.19770890111,1977,,TRUE
Na-Fe-O,mp-27557,[1557],Na8Fe2O7,0,P2_1/c,y,y,873,,,{},{},1,,"Na2O, Fe2O3",,10.1002/zaac.19784380102,1978,,TRUE
Na-Fe-O,mp-16398,[412212],Na9Fe2O7,0.016950484,Pca2_1,n,n,,,,{},{},,,"CdO, Na2O, Fe, NaOH",from melt,10.1002/1521-3749(200206)628:5<917::AID-ZAAC917>3.0.CO;2-G,2002,,TRUE
Na-Fe-O,mp-18728,"[200009, 424349]",NaFe2O3,0.100197202,P-3m1,y,y,1123,,N2,{},"{""step1"": {""cool rate"": [], ""cool time"": [], ""cool medium"": [], ""cool type"": [""quench""], ""end temperature"": [""RT""], ""remark"": []}}",1,,"Fe, Fe2O3, NaFeO2",,10.1016/j.jssc.2012.03.035,2012,beta phase,FALSE
Na-Fe-O,mp-505170,[73881],NaFe3O5,0.699343025,Pnnm,?,?,,,,{},{},,,,,10.1006/jssc.1993.1245,1993,doped: Ca 5%; insufficent information: unclear starting composition and result of reaction,FALSE
Na-Fe-O,mp-21880,"[33769, 33768, 33774, 33773, 33775]",NaFeO2,0.027022973,P4_12_12,y,y,,,,{},{},,,,,10.1524/zkri.1990.193.1-2.51,2010,gamma phase; high temperature phase of mp-21060,FALSE
Na-Fe-O,mp-19359,"[37157, 75588, 167376, 167377, 187705, 420380]",NaFeO2,0,R-3m,y,y,923,AP,,{},"{""step1"": {""cool rate"": [], ""cool time"": [], ""cool medium"": [""air""], ""cool type"": [""quench""], ""end temperature"": [""RT""], ""remark"": []}}",1,,"Na2O2, Fe3O4",,10.5796/electrochemistry.80.716,2012,alpha phase,FALSE
Na-Fe-O,mp-21060,"[158330, 33772, 27804, 33763, 68984, 186309, 33766, 33770, 33764, 33765, 33767, 33771, 27117]",NaFeO2,0.049888909,Pna2_1,y,y,1172,AP,,{},{},2,,"Fe2O3, Na2C2O4",,10.1016/S0022-4596(05)80077-5,1990,"beta phase; other phase of mp-19359, which can be synthesized via solid state synthesis",FALSE
Na-Ga-O,mp-7656,[4117],Na5GaO4,0,Pbca,y,y,973,,,{},{},1,,"Na2O, Ga2O3",,10.1002/zaac.19754140302,1975,,TRUE
Na-Ga-O,mp-27618,[104],Na8Ga2O7,0,P2_1/c,?,?,,,,{},{},,,,,10.1002/zaac.19764220102,1976,,FALSE
Na-Ga-O,mp-1200040,[6163],NaGa11O18,0.064006422,P2_1/m,?,?,,,,{},{},,,,,,,ICSD 6163 contain hydrogen,N/A
Na-Ga-O,mp-3338,"[36652, 4416]",NaGaO2,0,Pna2_1,y,y,1123,AP,,{},{},1,,"Na2CO3, Ga2O3",,10.1002/crat.2170310523,1996,alpha phase,FALSE
Na-Ga-O,mp-557154,[280925],NaGaO2,0.010770959,Pbca,y,?,,,,{},{},,,,,10.1107/S0108270102003049,2002,gamma phase; requires quenching,FALSE
Na-Gd-O,mp-5088,"[22040, 97542]",NaGdO2,0,I4_1/amd,y,y,1273,AP,,{},{},1,,"Na2CO3, Gd2O3",,10.1016/j.jssc.2003.08.001,2003,excess Na2CO3,FALSE
Na-Ge-O,mp-558933,"[51106, 189269]",Na2Ge4O9,0.02061167,P-3c1,n,n,,,,{},{},,,"Al2O3, Na2CO3, GeO2, flux",flux,10.1107/S0108270113020921,2013,,FALSE
Na-Ge-O,mp-5784,"[1622, 16833, 23781]",Na2GeO3,0,Cmc2_1,y,y,1123,AP,,"{""step1"": {""grind method"": [""mixed""], ""wet/dry"": [], ""liquid"": [""acetone""]}}",{},2,,"Na2CO3, GeO2",,10.1007/BF00542294,1976,,FALSE
Na-Ge-O,mp-3153,"[24087, 68507]",Na4Ge9O20,0,I4_1/a,n,n,,,,{},{},,,,precipitation,10.3891/acta.chem.scand.17-0617,1963,,FALSE
Na-Ge-O,mp-2970,"[61496, 62595]",Na4GeO4,0,P-1,y,y,1373,,,{},{},3,,"Na2GeO3, NaOH",,10.1007/BF00810477,1985,,TRUE
Na-Hg-O,mp-4961,"[27409, 25511]",Na2HgO2,0,I4/mmm,y,y,773,,,{},{},2,,"Na2O2, HgO",,10.1007/BF00624409,1962,,TRUE
Na-In-O,mp-559023,[63570],Na24In5O15,0.00337205,I-43m,?,?,873,,,{},{},,,"NaIn, Na2O2, Na2O",,10.1002/(SICI)1521-3749(199803)624:3<541::AID-ZAAC541>3.0.CO;2-E,1999,insufficent information: Na content is questionable,TRUE
Na-In-O,mp-8840,[69630],Na5InO4,0.005118989,Pmmn,y,?,,,,{},{},,,,,10.1002/zaac.19905830104,1990,beta phase,FALSE
Na-In-O,mp-14493,[62072],Na5InO4,0,Pbca,y,y,703,,,{},{},1,,"Na2O2, NaIn",,10.1002/zaac.19875490603,1987,from abstract,TRUE
Na-In-O,mp-5175,"[31932, 34600]",NaInO2,0,R-3m,y,y,1173,AP,,{},{},1,,"In2O3, Na2CO3",,10.1039/A908505J,2000,,FALSE
Na-Ir-O,mp-754844,[187130],Na2IrO3,0,C2/m,y,y,1273,AP,,{},"{""step1"": {""cool rate"": [], ""cool time"": [], ""cool medium"": [], ""cool type"": [""furnace cool""], ""end temperature"": [""RT""], ""remark"": []}}",2,,"Na2CO3, IrO2",,10.1103/PhysRevB.82.064412,2010,excess Na2CO3,FALSE
Na-Ir-O,mp-28698,[67826],Na4IrO4,0,I4/m,y,y,873,,Ar,"{""step1"": {""grind method"": [""agate mortar""], ""wet/dry"": [], ""liquid"": []}}","{""step1"": {""cool rate"": [{""value"": ""20"", ""unit"": ""C/h""}], ""cool time"": [], ""cool medium"": [], ""cool type"": [], ""end temperature"": [""RT""], ""remark"": []}}",1,,"NaN3, NaNO3, IrO2",,10.1002/ange.201411959,2015,excess Na compounds,FALSE
Na-Ir-O,mp-1079568,[261371],NaIrO3,0,Cmcm,y,y,1073,4.5,,{},"{""step1"": {""cool rate"": [{""value"": ""3000"", ""unit"": ""C/h""}], ""cool time"": [], ""cool medium"": [], ""cool type"": [], ""end temperature"": [""RT""], ""remark"": []}}",1,,"Na2O2, Ir, NaClO3",,10.1016/j.jssc.2011.01.028,2011,,FALSE
Na-Mn-O,mp-27569,[1563],Na14Mn2O9,0,P-3,y,y,913,,,{},{},1,,"Na2O, MnO",,10.1002/zaac.19784380110,1978,,TRUE
Na-Mn-O,mp-558376,[409981],Na2Mn2O3,0,P4_32_12,y,y,773,,Ar,"{""step1"": {""grind method"": [""agate mortar""], ""wet/dry"": [], ""liquid"": []}}",{},2,,"NaN3, NaNO2, Mn3O4",,10.1524/ncrs.2009.0073,2009,,FALSE
Na-Mn-O,mp-19080,"[92858, 61050]",Na2Mn3O7,0,P-1,y,y,873,,O2,"{""step1"": {""grind method"": [""ball milling""], ""wet/dry"": [], ""liquid"": []}}","{""step1"": {""cool rate"": [], ""cool time"": [], ""cool medium"": [], ""cool type"": [], ""end temperature"": [""RT""], ""remark"": []}}",1,,"NaNO3, MnCO3",,10.1021/acs.chemmater.9b00772,2019,,FALSE
Na-Mn-O,mp-559081,[419587],Na2MnO2,0.005593732,C2/c,y,y,663,,Ar,"{""step1"": {""grind method"": [""agate mortar""], ""wet/dry"": [], ""liquid"": []}}",{},2,,"NaN3, NaNO3, Mn2O3",,10.1002/zaac.200800315,2009,,FALSE
Na-Mn-O,mp-28186,[39504],Na2MnO4,0.061958975,P6_3mc,?,?,,,,{},{},,,,,10.1007/BF02547485,1995,insufficent information: mentioned that Na2MnO4 was synthesized but no valid reactions were found,FALSE
Na-Mn-O,mp-18869,"[23345, 1026]",Na4Mn2O5,0,Fddd,y,y,843,,Ar,{},{},1,y,"Na2O, Mn2O3",,10.1007/BF00438306,1977,,TRUE
Na-Mn-O,mp-28262,[47101],Na5MnO4,0.01026082,Pmn2_1,y,y,923,,N2,{},{},1,,"Na2O, Mn2O3",,10.1007/BF02547485,1995,,FALSE
Na-Mn-O,mp-19321,[420410],Na6MnO4,0.01834662,P6_3mc,y,y,773,4,,"{""step1"": {""grind method"": [""agate mortar""], ""wet/dry"": [], ""liquid"": []}}","{""step1"": {""cool rate"": [], ""cool time"": [{""value"": ""63"", ""unit"": ""hour""}], ""cool medium"": [], ""cool type"": [], ""end temperature"": [""RT""], ""remark"": []}}",1,,"Na2O, MnO",,10.1515/znb-2009-0502,2009,,FALSE
Na-Mn-O,mp-542710,[172604],NaMn2O4,0,Pnma,y,y,1373,4.5,,{},{},1,y,"Na2O2, Mn2O3",,10.1016/j.jssc.2005.10.020,2006,,FALSE
Na-Mn-O,mp-18999,"[151587, 19022]",NaMn7O12,0.029303283,Im-3,y,y,1123,6,,{},"{""step1"": {""cool rate"": [], ""cool time"": [], ""cool medium"": [], ""cool type"": [""furnace cool""], ""end temperature"": [""RT""], ""remark"": []}}",1,,"MnO2, NaOH, Mn2O3",,10.1016/j.solidstatesciences.2004.11.020,2005,excess NaOH,FALSE
Na-Mn-O,mp-21036,"[16271, 15769]",NaMnO2,0.020874151,Pmmn,y,y,1223,,O2,{},"{""step1"": {""cool rate"": [], ""cool time"": [], ""cool medium"": [], ""cool type"": [""quench""], ""end temperature"": [""RT""], ""remark"": []}}",1,,"Na2CO3, Mn2O3",,10.1021/ja509704t,2014,"beta phase; other phase of mp-18957, which can be synthesized via solid state synthesis; excess Na2O",FALSE
Na-Mn-O,mp-18957,"[21028, 16270, 155330]",NaMnO2,0,C2/m,y,y,973,AP,,"{""step1"": {""grind method"": [""ball milling""], ""wet/dry"": [], ""liquid"": [""acetone""]}}","{""step1"": {""cool rate"": [], ""cool time"": [], ""cool medium"": [], ""cool type"": [""quench""], ""end temperature"": [""RT""], ""remark"": []}}",1,,"NaCO3, Mn2O3 ",,10.1149/2.035112jes,2011,alpha phase,FALSE
Na-Mo-O,mp-1191832,[40962],NaMo4O6,0.317440226,P4/mbm,?,?,1373,,,{},{},,,"Na2MoO4, MoO3",,10.1021/ja00508a043,1979,insufficent information: uncertain whether the synthesis require ZnO,FALSE
Na-Mo-O,mp-19760,"[33701, 24312]",Na2Mo2O7,0,Cmce,y,y,973,AP,,{},{},1,,"Na2MoO4, MoO3",,10.3891/acta.chem.scand.21-0499,1967,,FALSE
Na-Mo-O,mp-18852,"[195518, 44523, 151970]",Na2MoO4,0,Fd-3m,y,y,933,AP,,"{""step1"": {""grind method"": [""ball milling""], ""wet/dry"": [], ""liquid"": [""ethanol""]}}",{},2,,"Na2O, MoO3",,10.1111/jace.13297,2014,alpha phase,FALSE
Na-Mo-O,mp-22730,[151971],Na2MoO4,0.017872079,Fddd,y,y,,,,{},{},,,,,10.1002/zaac.200400119,2004,beta phase; high temperature phase of mp-18852,FALSE
Na-Mo-O,mp-1201708,"[4156, 20493]",Na2MoO6,0.454654288,Pbca,?,?,,,,{},{},,,,,,,"ICSD 4156, 20493 contain hydrogen",N/A
Na-Mo-O,mp-29984,[411635],Na4MoO5,0,P-1,y,y,723,,Ar,{},{},1,,"Na2O, MoO3",,10.1002/1521-3749(200104)627:4<755::AID-ZAAC755>3.0.CO;2-L,2001,,TRUE
Na-Mo-O,mp-648992,[37032],Na6Mo10O33,0.021544437,P-1,n,n,,,,{},{},,,"Na2CO3, MoO3",from melt,10.1016/0022-4596(83)90151-2,1983,,FALSE