system,mp_id,icsd_ids,composition,e_above_hull,Spacegroup Number,solid_state_synthesized_composition,solid_state_synthesized_structure,sss_highest_temperature(K),sss_pressure(GPa),sss_atmosphere,sss_mixing_condition,sss_cooling_condition,sss_heating_step,single_crystal,sss_precursor,other_synthesis_method,reference,reference_year,comment,google_translate
Gd-Ge-O,mp-1191917,[65813],Gd3GeO8,0.162464694,P2_1/m,?,?,,,,{},{},,,,,,,ICSD 65813 contain hydrogen,N/A
Gd-Ge-O,mp-1200081,[63625],Gd4Ge3O13,0.048422646,P-1,?,?,,,,{},{},,,,,,,ICSD 63625 contain hydrogen,N/A
Gd-Hf-O,mp-1190245,"[236214, 236213]",Gd2Hf2O7,0,Fd-3m,y,y,,,,{},{},,,,,10.1016/j.solidstatesciences.2012.08.003,2012,"modelling of pyrochlore Gd2Hf2O7, which can be synthesized via solid state synthesis: 10.1016/S0925-8388(97)00430-1",FALSE
Gd-Mn-O,mp-703682,[97046],GdMn2O5,0,Pbam,y,y,1673,,O2,{},{},2,,"Gd2O3, Mn2O3",,10.1088/1674-1056/28/2/027502,2019,,FALSE
Gd-Mo-O,mp-642754,"[291027, 159776, 159775, 159777, 159774]",Gd2Mo2O7,0.287741014,Fd-3m,y,y,1623,,Ar,{},{},1,,"Gd2O3, MoO2",,10.1103/PhysRevB.63.144425,2000,,FALSE
Gd-Mo-O,mp-3572,"[2707, 9486]",Gd2Mo3O12,0,Pba2,y,y,,,,{},{},,,,,10.1021/cm503720s,2014,beta' phase; high temperature phase of mp-1195696,FALSE
Gd-Mo-O,mp-721324,[2708],Gd2Mo3O12,0.004157294,P-42_1m,y,y,,,,{},{},,,,,10.1107/S0567740872001876,1972,high temperature phase of mp-1195696,FALSE
Gd-Mo-O,mp-1195696,[251703],Gd2Mo3O12,0.027081421,C2/c,y,y,1023,AP,,{},{},2,,"Gd2O3, MoO3",,10.1021/cm503720s,2014,alpha phase,FALSE
Gd-Mo-O,mp-555761,[281159],Gd2Mo4O15,0.008521002,P-1,y,y,973,AP,,{},"{""step1"": {""cool rate"": [], ""cool time"": [], ""cool medium"": [], ""cool type"": [""furnace cool""], ""end temperature"": [""RT""], ""remark"": []}}",1,,"Gd2O3, MoO3",,10.1016/j.jlumin.2016.12.013,2017,doped: Eu 5%,FALSE
Gd-Mo-O,mp-704238,[281157],Gd2Mo5O18,0.007783757,Pbcn,n,n,,,,{},{},,,[Gd2(H2O)12Mo8O27]·xH2O,decomposition,10.1021/ic025697z,2002,,FALSE
Gd-Mo-O,mp-582797,[62886],Gd2MoO6,0,C2/c,y,y,1573,AP,,"{""step1"": {""grind method"": [""agate mortar""], ""wet/dry"": [], ""liquid"": []}}",{},1,,"MoO3, Gd2O3",,10.1016/j.jssc.2008.07.008,2008,doped: Eu 4%,FALSE
Gd-Mo-O,mp-1204194,[247565],Gd3MoO7,0,P2_12_12_1,y,y,1623,,,"{""step1"": {""grind method"": [""agate mortar""], ""wet/dry"": [], ""liquid"": []}}",{},1,,"Gd2O3, MoO3",,10.1016/j.jssc.2010.09.005,2010,,FALSE
Gd-Mo-O,mp-1200768,[281032],Gd4Mo4O11,0.147701928,Pbam,y,y,1673,,,{},"{""step1"": {""cool rate"": [{""value"": ""100"", ""unit"": ""C/h""}], ""cool time"": [], ""cool medium"": [], ""cool type"": [], ""end temperature"": [{""value"": ""1100"", ""unit"": ""C""}], ""remark"": []}, ""step2"": {""cool rate"": [], ""cool time"": [], ""cool medium"": [], ""cool type"": [""furnace cool""], ""end temperature"": [""RT""], ""remark"": []}}",1,,"MoO3, Mo, Gd2O3",,10.1021/ic011000i,2002,,FALSE
Gd-Mo-O,mp-704325,[280968],Gd4Mo7O27,0.019669008,C2/c,n,n,,,,{},{},,,[Gd2(H2O)12Mo8O27]·8H2O,decomposition,10.1107/S1600536802010334,2002,,FALSE
Gd-Mo-O,mp-1195215,[424592],Gd6Mo10O39,0.027567124,C2/c,?,?,,,,{},{},,,,,10.1002/zaac.201204067,2012,unintended product,FALSE
Gd-Nb-O,mp-1191890,[190729],Gd3NbO7,0.007589513,Cmcm,y,?,,,,{},{},,,,,10.1016/j.jssc.2013.10.015,2014,other refinement of mp-780255,FALSE
Gd-Nb-O,mp-780255,[174285],Gd3NbO7,0.004194586,C222_1,y,y,1743,AP,,{},{},2,,"Gd2O3, Nb2O5",,10.1016/j.jssc.2010.01.006,2010,,FALSE
Gd-Nb-O,mp-19721,"[20408, 109305]",GdNbO4,0,C2/c,y,y,1473,AP,,{},{},1,,"Gd2O3, Nb2O5",,10.1021/acs.jpcc.7b02475,2017,ICSD 109305 not found,FALSE
Gd-Ni-O,mp-505604,[88040],GdNiO3,0.177045814,Pnma,y,y,1123,0.09,O2,{},"{""step1"": {""cool rate"": [{""value"": ""300"", ""unit"": ""C/h""}], ""cool time"": [], ""cool medium"": [], ""cool type"": [], ""end temperature"": [""RT""], ""remark"": []}}",1,,"Gd2O3, NiO, KClO4",,10.1021/ja984015x,1999,,FALSE
Gd-Os-O,mp-16825,[170875],Gd3OsO7,0.003437385,Cmcm,n,n,,,,{},{},,,,,10.1021/ic0506106,2005,high temperature phase of mp-567291,FALSE
Gd-Os-O,mp-567291,[170878],Gd3OsO7,0,Pna2_1,n,n,,,,{},{},,,"NaOH, Os, Gd2O3, H2O",flux,10.1021/ic0506106,2005,,FALSE
Gd-Pd-O,mp-20102,[78845],GdPd2O4,0,I4_1/a,y,y,1275,2,,{},{},1,,"PdO, Gd2O3, KClO4",,10.1002/zaac.19966220617,1996,,TRUE
Gd-Re-O,mp-1199105,[90106],GdRe3O15,0.206330188,Pna2_1,?,?,,,,{},{},,,,,,,ICSD 90106 contain hydrogen,N/A
Gd-Re-O,mp-15922,[88687],Gd2ReO5,0,P4/n,y,y,1373,,Ar,{},{},1,,"Gd2O3, ReO2",,10.1016/0025-5408(69)90091-9,1969,,FALSE
Gd-Re-O,mp-31101,[99252],Gd3ReO7,0.029843972,Cmcm,y,y,1673,0,vacuum,"{""step1"": {""grind method"": [""agate mortar""], ""wet/dry"": [], ""liquid"": []}}",{},1,,"ReO2, Gd2O3, ReO3",,10.1016/j.jallcom.2003.11.067,2004,,FALSE
Gd-Re-O,mp-30137,[92578],Gd3ReO8,0,P2_1/c,y,y,1173,AP,,{},{},1,,"Gd2O3, Re2O7",,10.1006/jssc.1995.1003,2018,,FALSE
Gd-Ru-O,mp-505216,[79332],Gd2Ru2O7,0.017,Fd-3m,y,y,1423,AP,,{},{},2,,"RuO2, Gd(NO3)3·6H2O",,10.1006/jssc.1995.1003,1995,,FALSE
Gd-Ru-O,mp-683963,[171144],Gd3RuO7,0,Pna2_1,y,y,1573,,"O2,Ar",{},{},2,,"Gd2O3, RuO2",,10.1103/PhysRevB.62.12235,2000,,FALSE
Gd-Ru-O,mp-17237,[92067],Gd3RuO7,0.004360022,Cmcm,y,y,,,,{},{},,,,,10.1021/ic701732d,2007,high temperature phase of mp-683963,FALSE
Gd-Sb-O,mp-505046,"[67357, 65147, 67024]",Gd3Sb5O12,0,I-43m,y,y,963,0,vacuum,{},"{""step1"": {""cool rate"": [], ""cool time"": [], ""cool medium"": [], ""cool type"": [""quench""], ""end temperature"": [""RT""], ""remark"": []}}",1,,"Gd2O3, Sb2O3",,10.1016/0022-5088(89)90470-0,1989,,FALSE
Gd-Sb-O,mp-1104777,[380460],Gd3SbO3,0.004513655,C2/m,y,y,1873,0,vacuum,{},"{""step1"": {""cool rate"": [], ""cool time"": [], ""cool medium"": [], ""cool type"": [""furnace cool""], ""end temperature"": [""RT""], ""remark"": []}}",1,,"GdSb, Gd2O3",,10.1021/ja1027698,2010,,FALSE
Gd-Sb-O,mp-1191117,[188506],Gd3SbO7,0,Cmcm,y,y,1773,AP,,"{""step1"": {""grind method"": [""pestle and mortar""], ""wet/dry"": [], ""liquid"": []}}",{},1,,"Gd2O3, Sb2O3",,10.1016/j.jssc.2013.05.001,2013,inhomogeneous,FALSE
Gd-Sc-O,mp-5690,"[65513, 99543]",GdScO3,0.011761952,Pnma,y,y,1475,AP,,"{""step1"": {""grind method"": [""agate mortar""], ""wet/dry"": [], ""liquid"": [""acetone""]}}",{},2,,"Gd2O3, Sc2O3",,10.1016/j.jssc.2004.02.025,2004,inhomogeneous,FALSE
Gd-Se-O,mp-669388,[280201],Gd2Se2O,0.006282911,Pnma,n,n,,,,{},{},,,"Gd, Se, KBr",flux,10.1107/S0108270100003024,2000,minority phase,FALSE
Gd-Se-O,mp-13973,[25808],Gd2SeO2,0,P-3m1,n,n,,,,{},{},,,"Gd2O3, H2Se",solid gas reaction,10.1107/S0365110X60000339,1960,,FALSE
Gd-Sn-O,mp-17064,[84753],Gd2Sn2O7,0.902942984,Fd-3m,y,y,1773,AP,,{},{},2,,"SnO2, Gd2O3",,10.1006/jssc.1997.7277,1997,,FALSE
Gd-Ta-O,mp-4875,"[20264, 155659, 415433]",GdTaO4,0,P2/c,y,y,1473,AP,,{},{},1,,"Ta2O5, Gd2O3",,10.1016/j.ssc.2007.09.010,2007,M' phase,FALSE
Gd-Ta-O,mp-5575,"[109186, 153362]",GdTaO4,0.005758849,C2/c,y,y,,,,{},{},,,,,10.1016/j.jallcom.2006.02.027,2006,high temperature phase of mp-4875; M phase,FALSE
Gd-Te-O,mp-542515,[413657],Gd2Te4O11,0.541463316,C2/c,y,y,1073,AP,,{},{},2,,"TeO2, Gd2O3",,10.1016/0022-5088(90)90019-G,1990,,FALSE
Gd-Te-O,mp-16035,[89563],Gd2TeO2,0,I4/mmm,n,n,,,,{},{},,,"TeO2, CsCl, Gd",flux,10.1002/(SICI)1521-3749(199911)625:11<1833::AID-ZAAC1833>3.0.CO;2-8,1999,,TRUE
Gd-Te-O,mp-17583,[412447],Gd2TeO6,1.064637133,P2_12_12_1,y,y,1073,0,vacuum,{},"{""step1"": {""cool rate"": [{""value"": ""5"", ""unit"": ""C/h""}], ""cool time"": [], ""cool medium"": [], ""cool type"": [], ""end temperature"": [""RT""], ""remark"": []}}",1,,"Gd2O3, TeO3",,10.1016/S0022-4596(02)00222-0,2003,,FALSE
Gd-Ti-O,mp-5302,"[196406, 150210, 24207, 188552, 164024, 191619, 188036]",Gd2Ti2O7,0.008689435,Fd-3m,y,y,1473,AP,,{},{},2,,"Gd2O3, TiO2",,10.1016/j.jlumin.2015.09.033,2016,,FALSE
Gd-Ti-O,mp-557626,"[195211, 262620, 162128]",Gd2TiO5,0,Pnma,y,y,1823,AP,,"{""step1"": {""grind method"": [""ball milling""], ""wet/dry"": [], ""liquid"": []}}","{""step1"": {""cool rate"": [{""value"": ""300"", ""unit"": ""C/h""}], ""cool time"": [], ""cool medium"": [], ""cool type"": [], ""end temperature"": [""RT""], ""remark"": []}}",1,,"Gd2O3, TiO2",,10.1016/j.jssc.2015.03.003,2015,,FALSE
Gd-Ti-O,mp-510278,[8149],GdTiO3,0.02668967,Pnma,y,y,1673,0,vacuum,"{""step1"": {""grind method"": [""ball milling""], ""wet/dry"": [], ""liquid"": [""acetone""]}}",{},1,,"Gd2O3, Ti2O3",,10.1006/jssc.2000.8905,2000,,FALSE
Gd-V-O,mp-541177,[40391],GdVO3,0,Pnma,y,y,1673,0,vacuum,"{""step1"": {""grind method"": [""mortar""], ""wet/dry"": [], ""liquid"": []}}","{""step1"": {""cool rate"": [], ""cool time"": [], ""cool medium"": [], ""cool type"": [""slow cooling""], ""end temperature"": [""RT""], ""remark"": []}}",1,,"Gd2O3, V2O3",,10.1016/0025-5408(76)90187-2,1976,,FALSE
Gd-V-O,mp-22024,"[238224, 238223, 15607, 81703, 186231, 186232, 152692]",GdVO4,0,I4_1/amd,y,y,1673,6,,{},{},1,,"Gd2O3, NH4VO3",,10.1016/j.jallcom.2012.05.103,2012,,FALSE
Gd-W-O,mp-541126,[62887],Gd2WO6,1.210876261,C2/c,y,y,1173,AP,,{},{},1,,"Gd2O3, WO3",,10.1016/j.jssc.2008.07.008,2008,II phase,FALSE
Gd-W-O,mp-565757,[62888],Gd2WO6,0.19864149,P2_12_12_1,y,?,,,,{},{},,,,,"Kristallografiya 32, 371 (1987)",1987,other phase of mp-541126;  V phase; translational issue: russian,FALSE
Gd-Zr-O,mp-510605,"[160158, 185395, 261759, 185396, 261758]",Gd2Zr2O7,0.272834369,Fd-3m,y,y,1723,AP,,{},{},2,,"Gd2O3, ZrO2",,10.1016/j.jssc.2011.04.003,2011,,FALSE
Gd-Zr-O,mp-757233,[188035],Gd2Zr2O7,0.004328625,Fd-3m,y,?,,,,{},{},,,,,10.1039/C2TC00192F,2012,modelling of mp-510605,FALSE
Ge-Bi-O,mp-29218,[100277],Ge3Bi2O9,0.00503223,P6_3/m,y,y,1173,AP,,"{""step1"": {""grind method"": [""ball milling""], ""wet/dry"": [], ""liquid"": []}}",{},3,,"Bi4Ge3O12, GeO2",,10.1016/j.jeurceramsoc.2016.08.037,2017,,FALSE
Ge-Bi-O,mp-23560,"[39227, 260560, 39231, 108872, 201356, 86276, 156439, 156438]",Ge3Bi4O12,0,I-43d,y,y,1073,AP,,"{""step1"": {""grind method"": [""ball milling""], ""wet/dry"": [], ""liquid"": [""isopropanol""]}}",{},1,,"Bi2O3, GeO2",,10.1111/j.1151-2916.2002.tb00367.x,2004,,FALSE
Ge-Bi-O,mp-23352,"[8241, 68431, 27423, 39611]",GeBi12O20,0.000406106,I23,y,y,973,AP,,"{""step1"": {""grind method"": [""ball milling""], ""wet/dry"": [], ""liquid"": [""isopropanol""]}}",{},2,,"Bi2O3, GeO2",,10.1063/1.2763946,2007,,FALSE
Ge-Bi-O,mp-23553,"[65522, 77138]",GeBi2O5,0.031090347,Pnma,y,?,,,,{},{},,,,,,,might be other refinement/phase of mp-23446,N/A
Ge-Bi-O,mp-23446,"[49685, 94334]",GeBi2O5,0.005664031,Cmc2_1,y,y,1273,AP,,{},"{""step1"": {""cool rate"": [], ""cool time"": [], ""cool medium"": [], ""cool type"": [""slow cooling""], ""end temperature"": [""RT""], ""remark"": []}}",1,,"Bi2O3, GeO2",,10.3891/acta.chem.scand.18-1555,1964,,FALSE
Ge-Pb-O,mp-680143,[403000],Ge3Pb11O17,0.006997363,P-1,y,?,,,,{},{},,,,,10.1524/zkri.1995.210.3.188,1995,"other phase of monoclinic Ge3Pb11O17, which can be synthesized via solid state synthesis: 10.1107/S0021889880012125; insufficient information: no synthesis information",TRUE
Ge-Pb-O,mp-1201507,[82771],Ge3Pb3O10,0.337420598,R-3,?,?,,,,{},{},,,,,,,ICSD 82771 contain hydrogen,N/A
Ge-Pb-O,mp-557667,"[34430, 19014, 200063]",Ge3Pb5O11,0.01201873,P-6,y,?,,,,{},{},,,,,10.1002/pssa.2210350264,1976,hight temperature phase of mp-557340,FALSE
Ge-Pb-O,mp-557340,"[248064, 4119]",Ge3Pb5O11,0.009880287,P3,y,y,913,AP,,"{""step1"": {""grind method"": [""agate mortar""], ""wet/dry"": [], ""liquid"": [""acetone""]}}",{},1,,"PbO, GeO2",,10.1080/00150199808018223,2011,,FALSE
Ge-Pb-O,mp-29217,[100269],Ge3PbO7,0.029255693,Pbca,n,n,,,,{},{},,,"PbO, GeO2",from melt,10.1107/S0021889878012972,1978,,FALSE
Ge-Pb-O,mp-541156,[64910],Ge4PbO9,0.001934401,P321,n,n,,,,{},{},,,"PbO, GeO2",from melt,10.1080/00150198208202016,2011,alpha phase; inhomogeneous,FALSE
Ge-Pb-O,mp-559373,[201282],Ge4PbO9,0.002006603,C2,n,n,,,,{},{},,,,,10.1080/00150198208202016,2011,gamma phase; other phase of mp-541156,FALSE
Ge-Pb-O,mp-559144,[100275],GePb3O5,0,P2_1,y,y,1003,AP,,{},"{""step1"": {""cool rate"": [], ""cool time"": [], ""cool medium"": [], ""cool type"": [""quench""], ""end temperature"": [""RT""], ""remark"": []}}",1,,"PbO, GeO2",,10.1246/bcsj.52.1368,1979,"different space group from (original) paper, might be another refinement",FALSE
Ge-Pb-O,mp-583345,[8261],GePb5O7,0.013335587,Pbca,y,y,990,AP,,{},"{""step1"": {""cool rate"": [], ""cool time"": [], ""cool medium"": [], ""cool type"": [""quench""], ""end temperature"": [""RT""], ""remark"": []}}",1,,"PbO, GeO2",,10.1246/bcsj.52.1368,1979,,FALSE
Ge-Pb-O,mp-553898,[200595],GePbO3,0.038328937,P2/c,?,?,,,,{},{},,,"PbO, GeO2",,10.1246/bcsj.52.1368,1979,insufficient information,FALSE
Ge-Pb-O,mp-554699,[172521],GePbO3,0,R-3,?,?,,,,{},{},,,,hydrothermal,10.1107/S1600536806017697,2006,might be other phase or refinement of mp-553898,FALSE
Ge-Pb-O,mp-1017566,"[185697, 185695, 185700, 185698, 185696, 185694, 185699, 185701, 185693]",GePbO3,0.2177423,Pm-3m,?,?,,,,{},{},,,,,10.2138/am.2012.4021,2012,high pressure phase of mp-553898,FALSE
Ge-Sb-O,mp-17708,[95735],Ge3Sb2O9,0,P6_3/m,n,n,,,,{},{},,,"GeO2, Sb2O3, pyridine, ethylene glycol, DABCO, HF",solvothermal,10.1016/S1293-2558(02)01330-4,2002,,FALSE
Ge-Sb-O,mp-1201722,[421470],Ge3Sb4O12,0,I-43d,n,n,,,,{},{},,,"Sb2O3, GeO2, pyrazine, ethylenediamine ",solvothermal,10.1016/j.inoche.2010.03.049,2010,,FALSE
Ge-Se-O,mp-1204060,[422884],GeSe2O6,0.015927456,Pa-3,n,n,,,,{},{},,,,,10.1016/j.jssc.2012.02.014,2012,beta phase; other phase of mp-1205339,FALSE
Ge-Se-O,mp-1205339,[422883],GeSe2O6,0,P2_1/c,n,n,,,,{},{},,,"GeO2, Sb2O3, HCl, H2O",hydrothermal,10.1016/j.jssc.2012.02.014,2012,alpha phase; inhomogeneous,FALSE
Ge-Te-O,mp-554142,[260278],GeTe2O6,0,P2_1/c,n,n,,,,{},{},,,"GeO2, TeO2, HF",hydrothermal,10.1107/S0108270109010488,2009,unintended product,FALSE
Hf-Ge-O,mp-9755,[202080],HfGeO4,0,I4_1/a,y,y,1473,AP,,{},{},1,,"HfO2, GeO2",,10.1088/0953-8984/18/35/011,2006,inhomogeneous,FALSE
Hf-Mo-O,mp-607824,[166517],HfMo2O8,0.427096797,P-31c,y,?,,,,{},{},,,,,,,might be old refinement of mp-687090,N/A
Hf-Mo-O,mp-559188,[98065],HfMo2O8,0.029762147,C2/c,y,y,,,,{},{},,,,,10.1103/PhysRevB.66.184106,2002,high temperature/pressure phase of mp-687090,FALSE
Hf-Mo-O,mp-687090,[59998],HfMo2O8,0,P-31c,y,y,923,AP,,{},{},1,,"HfO2, MoO3",,10.1103/PhysRevB.66.184106,2002,,FALSE
Hf-Pb-O,mp-22535,[161702],HfPbO3,0.04028345,Pm-3m,y,y,,,,{},{},,,,,10.1143/JPSJ.77.064601,2007,high temperature phase of mp-22734,FALSE
Hf-Pb-O,mp-22734,"[174113, 174109, 174112, 174108, 52030, 161704, 89326, 52029, 161707, 151432, 161705, 174114, 174110, 161703, 174111, 174106, 161706, 174107]",HfPbO3,0.009023372,Pbam,y,y,1423,AP,,{},{},4,,"HfO2, PbO",,10.1143/JPSJ.77.064601,2007,,FALSE
Hf-Pb-O,mp-669414,[33194],HfPbO3,0.012520605,Pba2,y,?,,,,{},{},,,,,10.1107/S0108768197009208,1998,old refinement of mp-22734,FALSE
Hf-Te-O,mp-18352,[9078],HfTe3O8,0,Ia-3,y,y,973,,,{},{},1,,"HfO2, TeO2",,10.1107/S0567740871002620,1971,,TRUE
Hf-V-O,mp-505679,"[90135, 90134]",HfV2O7,0,Pa-3,y,y,1023,AP,,"{""step1"": {""grind method"": [""agate mortar""], ""wet/dry"": [], ""liquid"": [""n-hexane""]}}",{},2,,"HfO2, NH4VO3, ZrO2",,10.2109/jcersj.114.607,2006,,FALSE
Hf-W-O,mp-1204711,[188441],HfW2O8,0.066723801,P2_13,y,y,1473,AP,,"{""step1"": {""grind method"": [""agate mortar""], ""wet/dry"": [], ""liquid"": []}}","{""step1"": {""cool rate"": [], ""cool time"": [], ""cool medium"": [], ""cool type"": [""quench""], ""end temperature"": [""RT""], ""remark"": []}}",1,,"HfO2, WO3",,10.1103/PhysRevB.64.184109,2001,,FALSE
Hg-As-O,mp-8975,[72527],Hg3As2O8,0,P2_1/c,n,n,,,,{},{},,,,hydrothermal,10.1107/S0108270192010588,1993,,FALSE
Hg-As-O,mp-556339,[413887],Hg3AsO4,0,P2_1/c,n,n,,,,{},{},,,,,10.1002/chin.200441012,2004,beta phase; other phase of mp-4445,FALSE
Hg-As-O,mp-4445,"[413886, 2604]",Hg3AsO4,0.005510546,P2_1/c,n,n,,,,{},{},,,"Hg2(NO3)2, Hg(NO3)2, H3AsO4",precipitation,10.1002/chin.200441012,2004,alpha phase; inhomogeneous,FALSE
Hg-As-O,mp-1203433,[427418],Hg3AsO5,0,P2_1/c,n,n,,,,{},{},,,,,10.5560/ZNB.2014-4063,2014,,FALSE
Hg-As-O,mp-30929,[391228],Hg4As2O7,0.013824931,Pnma,y,y,773,0,vacuum,{},{},1,,"HgO, As2O3",,10.1002/zaac.200300330,2004,inhomogeneous,FALSE
Hg-As-O,mp-541164,"[50278, 50279]",Hg9As4O16,0.012734726,R3c,y,y,823,0,vacuum,{},{},1,,"HgO, (Hg2)3(AsO4)2 ",,scripts.iucr.org/cgi-bin/paper?S0108767396086369,1996,,FALSE
Hg-As-O,mp-3810,"[411231, 409490]",HgAs2O6,0,P-31m,y,y,833,0,vacuum,{},{},1,,"As2O5, HgO",,10.1515/ncrs-2000-0407,2000,,FALSE
Hg-As-O,mp-1238093,[411229],HgAsO4,0.268183233,P2_1/c,?,?,,,,{},{},,,,,,,ICSd 411229 contain hydrogen,N/A
Hg-Ge-O,mp-13995,[26340],Hg2GeO4,0,Fddd,n,n,,,,{},{},,,,hydrothermal,10.1107/S0567740881003178,1981,,FALSE
Hg-Mo-O,mp-30136,[51511],Hg2Mo2O7,0.003762302,P2/c,y,y,823,0,vacuum,{},"{""step1"": {""cool rate"": [], ""cool time"": [], ""cool medium"": [], ""cool type"": [""quench""], ""end temperature"": [""RT""], ""remark"": []}}",1,,"HgO, MoO2",,10.1002/1521-3749(200102)627:2<224::AID-ZAAC224>3.0.CO;2-O,2000,beta phase; inhomogeneous,FALSE
Hg-Mo-O,mp-554533,[83374],Hg2Mo2O7,0.002512177,P-1,y,?,,,,{},{},,,,,10.1002/1521-3749(200102)627:2<224::AID-ZAAC224>3.0.CO;2-O,2000,alpha phase; other phase of mp-30136; insufficient information: uncertain whether alpha phase can be directly synthesized via solid state reaction,FALSE
Hg-Mo-O,mp-561361,[51512],Hg2Mo2O7,0.002979444,C2/c,y,?,,,,{},{},,,,,10.1002/1521-3749(200102)627:2<224::AID-ZAAC224>3.0.CO;2-O,2000,other refinement of mp-30136,FALSE
Hg-Mo-O,mp-29148,[84641],Hg2Mo5O16,0.018881225,P2/c,y,y,733,0,vacuum,{},"{""step1"": {""cool rate"": [], ""cool time"": [], ""cool medium"": [""air""], ""cool type"": [], ""end temperature"": [""RT""], ""remark"": []}}",1,,"HgMo4, MoO2",,10.1006/jssc.1996.7188,1997,inhomogeneous,FALSE
Hg-Mo-O,mp-558802,[90084],Hg2MoO4,0.007323766,C2/c,y,n,,,,{},{},,,,precipitation,10.1021/ic000331c,2000,alpha phase; other phase of mp-29893,FALSE
Hg-Mo-O,mp-29893,[90083],Hg2MoO4,0,P2_1/c,y,y,673,0,vacuum,{},"{""step1"": {""cool rate"": [], ""cool time"": [], ""cool medium"": [""air""], ""cool type"": [""quench""], ""end temperature"": [""RT""], ""remark"": []}}",1,y,"HgO, MoO2",,10.1021/ic000331c,2000,inhomogeneous; beta phase,FALSE
Hg-Mo-O,mp-19363,[2533],HgMoO4,0,C2/c,y,y,673,AP,,{},{},1,,"HgO, MoO3",,10.1016/0025-5408(71)90170-X,1971,,FALSE
Hg-Os-O,mp-22089,"[159798, 159799, 159803, 159796, 159800, 159804, 159801, 159805, 159809, 159808, 159794, 159802, 159797, 159806, 159795, 159807]",Hg2Os2O7,0.034368018,Fd-3m,y,y,773,0,vacuum,{},"{""step1"": {""cool rate"": [], ""cool time"": [], ""cool medium"": [], ""cool type"": [""furnace cool""], ""end temperature"": [""RT""], ""remark"": []}}",1,,"HgO, Os, OsO4",,10.1039/B109715F,2001,,FALSE
Hg-Sb-O,mp-557697,[160088],Hg2Sb2O7,0,Fd-3m,y,y,753,,O2,{},{},2,,"HgO, Sb2O5",,10.1016/j.jallcom.2007.03.011,2008,,FALSE
Hg-Sb-O,mp-1102674,"[52534, 31268, 158912]",Hg4SbO6,0.291191056,C2/m,?,?,,,,{},{},,,,,,,"ICSD 52534, 31268, 158912 contain hydrogen",N/A
Hg-Se-O,mp-1195762,[281131],Hg12Se6O25,0.086022827,R-3,?,?,,,,{},{},,,,,,,ICSD 281131 contain hydrogen,N/A
Hg-Se-O,mp-1204483,[82379],Hg2Se2O7,0.280097477,P2_1/c,?,?,,,,{},{},,,,,,,ICSD 82379 contain hydrogen,N/A
Hg-Se-O,mp-30286,[412302],Hg2SeO3,0.005853894,P2_1/c,n,n,,,,{},{},,,,,10.1016/S0022-4596(02)00082-8,2003,alpha phase; other phase of mp-555918,FALSE
Hg-Se-O,mp-555918,[412303],Hg2SeO3,0.005946369,Cmc2_1,n,n,,,,{},{},,,"SeO2, Hg2(NO3)2·2H2O, HNO3",precipitation,10.1016/S0022-4596(02)00082-8,2003,beta phase,FALSE
Hg-Se-O,mp-557637,[412304],Hg2SeO3,0,Ibam,n,n,,,,{},{},,,,,10.1016/S0022-4596(02)00082-8,2003,gamma phase; other phase of mp-555918,FALSE
Hg-Se-O,mp-7462,[15006],Hg2SeO4,0.015986352,P2/c,n,n,,,,{},{},,,"mercury nitrate, selenic acid",precipitation,10.3891/acta.chem.scand.23-1607,1969,,FALSE
Hg-Se-O,mp-30123,[412404],Hg2SeO5,0,P2_1/c,n,n,,,,{},{},,,HgSeO4,hydrothermal,10.1515/znb-2002-0911,2002,minority phase,FALSE
Hg-Se-O,mp-542115,[280914],Hg3Se3O10,0,P2_1,n,n,,,,{},{},,,HgSeO4,hydrothermal,10.1107/S0108270102001920,2002,,FALSE
Hg-Se-O,mp-1201118,[203204],Hg3Se4O12,0.104439031,P2_1/c,?,?,,,,{},{},,,,,,,ICSD 203204 contain hydrogen,N/A