system,mp_id,icsd_ids,composition,e_above_hull,Spacegroup Number,solid_state_synthesized_composition,solid_state_synthesized_structure,sss_highest_temperature(K),sss_pressure(GPa),sss_atmosphere,sss_mixing_condition,sss_cooling_condition,sss_heating_step,single_crystal,sss_precursor,other_synthesis_method,reference,reference_year,comment,google_translate
Cs-Fe-O,mp-1201412,[414483],Cs5FeO4,0,P2_1/c,y,y,773,,Ar,{},"{""step1"": {""cool rate"": [{""value"": ""100"", ""unit"": ""C/h""}], ""cool time"": [], ""cool medium"": [], ""cool type"": [], ""end temperature"": [""RT""], ""remark"": []}}",1,,"CsO2, Cs, Fe2O3",,10.1002/zaac.200400366,2005,inhomogeneous; beta phase; excess CsO2; insufficient information: uncertain phase percentage,TRUE
Cs-Fe-O,mp-1105876,[174313],Cs6Fe2O5,0.639966795,Cm,y,y,773,,Ar,{},"{""step1"": {""cool rate"": [{""value"": ""100"", ""unit"": ""C/h""}], ""cool time"": [], ""cool medium"": [], ""cool type"": [], ""end temperature"": [""RT""], ""remark"": []}}",1,,"Cs, CsO2, Fe2O3",,freidok.uni-freiburg.de/data/2942,2006,,TRUE
Cs-Fe-O,mp-505147,[73134],Cs6Fe2O5,0,C2/m,y,?,,,,{},{},,,,,10.1002/zaac.19936190132,1993,might be other refinement of mp-1105876,FALSE
Cs-Fe-O,mp-1198676,[174315],Cs8Fe2O7,0.399786683,P2_1/c,y,y,673,,Ar,{},"{""step1"": {""cool rate"": [{""value"": ""100"", ""unit"": ""C/h""}], ""cool time"": [], ""cool medium"": [], ""cool type"": [], ""end temperature"": [""RT""], ""remark"": []}}",1,,"Cs, CsO2, Fe2O3",,freidok.uni-freiburg.de/data/2942,2006,,TRUE
Cs-Fe-O,mp-1080749,"[421173, 174318]",CsFeO2,0,Fd-3m,y,y,833,,Ar,"{""step1"": {""grind method"": [""agate mortar""], ""wet/dry"": [], ""liquid"": []}}","{""step1"": {""cool rate"": [{""value"": ""5"", ""unit"": ""C/h""}], ""cool time"": [], ""cool medium"": [], ""cool type"": [], ""end temperature"": [{""value"": ""673"", ""unit"": ""K""}], ""remark"": []}, ""step2"": {""cool rate"": [{""value"": ""100"", ""unit"": ""C/h""}], ""cool time"": [], ""cool medium"": [], ""cool type"": [], ""end temperature"": [""RT""], ""remark"": []}}",1,,"CsN3, CsNO3, Fe2O3",,10.1016/j.jssc.2010.01.022,2010,,FALSE
Cs-Ge-O,mp-1202492,[412137],Cs10Ge2O9,0.04451929,P2_1/c,y,y,773,,Ar,{},"{""step1"": {""cool rate"": [{""value"": ""5"", ""unit"": ""C/h""}], ""cool time"": [], ""cool medium"": [], ""cool type"": [], ""end temperature"": [""RT""], ""remark"": []}}",1,,"GeO2, Cs",,10.1515/znb-2001-1201,2001,inhomogeneous,TRUE
Cs-Ge-O,mp-573150,[412139],Cs2GeO3,0,P2_1/c,y,y,1073,,,{},"{""step1"": {""cool rate"": [{""value"": ""5"", ""unit"": ""C/h""}], ""cool time"": [], ""cool medium"": [], ""cool type"": [], ""end temperature"": [{""value"": ""600"", ""unit"": ""C""}], ""remark"": []}, ""step2"": {""cool rate"": [{""value"": ""10"", ""unit"": ""C/h""}], ""cool time"": [], ""cool medium"": [], ""cool type"": [], ""end temperature"": [""RT""], ""remark"": []}}",1,,"GeO2, CsO2, Cs",,10.1515/znb-2001-1201,2001,inhomogeneous,TRUE
Cs-Hg-O,mp-7232,[25513],Cs2HgO2,0,I4/mmm,y,y,773,,Ar,{},{},2,,"HgO, CsO",,10.1002/zaac.19643290115,1964,,TRUE
Cs-In-O,mp-28381,[62644],Cs3InO3,0,P2_1/c,y,y,923,,,{},{},1,y,"In2O3, CsO0.53",,10.1002/zaac.19875470422,1987,,TRUE
Cs-In-O,mp-1196865,"[421564, 421568, 421565, 421566, 421567]",Cs8In2O7,0,P2_1/c,y,y,673,,Ar,{},{},1,y,"Cs2O, In2O3",,10.1515/znb-2010-1202,2010,,FALSE
Cs-In-O,mp-559213,[23630],CsIn3O5,0,Pnma,y,y,1273,,Ar,{},{},1,,"In2O3, Cs2O",,10.1007/BF00623559,1973,,TRUE
Cs-Ir-O,mp-561672,[72287],Cs4IrO4,0,C2/m,y,y,1173,,,{},"{""step1"": {""cool rate"": [], ""cool time"": [], ""cool medium"": [], ""cool type"": [""slow cooling""], ""end temperature"": [""RT""], ""remark"": []}}",2,y,"CsO0.52, IrO2",,10.1002/zaac.19926140807,1992,,TRUE
Cs-Mn-O,mp-505300,"[39503, 84257]",Cs2MnO4,0,Pnma,y,y,775,,O2,{},{},2,,"Cs2O, MnO2",,10.1016/S0021-9614(05)80226-5,1992,,FALSE
Cs-Mn-O,mp-18994,"[16819, 89508]",CsMnO4,0,Pnma,n,n,,,,{},{},,,"CsCl, KMnO4",ion exchange,10.1007/BF01914135,1990,,FALSE
Cs-Mo-O,mp-645299,[419772],Cs2Mo2O11,0.38122243,P-1,n,n,,,,{},{},,,"MoO3, Cs2CO3",from melt,10.1016/j.molstruc.2008.08.011,2009,,FALSE
Cs-Mo-O,mp-1193056,[280066],Cs2Mo3O10,0,C2/c,n,n,,,,{},{},,,"Cs2CO3, MoO3",from melt,10.1107/S0108270198012979,1999,,FALSE
Cs-Mo-O,mp-1202511,[186296],Cs2Mo4O13,0.01148816,P-1,?,?,,,,{},{},,,"CsNO3, Cu3(MoO4)2(OH)2",,10.1134/S1066362211040035,2011,beta phase; alpha phase can be synthesized via solid state synthesis,FALSE
Cs-Mo-O,mp-1200365,[1886],Cs2Mo5O16,0.017035683,C2/c,y,y,753,AP,,{},{},1,,"Cs2CO3, MoO3",,10.1107/S0567740875005080,1975,,FALSE
Cs-Mo-O,mp-1200748,[1887],Cs2Mo7O22,0.018262532,C2/c,y,y,753,AP,,{},{},1,,"Cs2CO3, MoO3",,10.1107/S0567740875005080,1975,,FALSE
Cs-Mo-O,mp-1194312,[9278],Cs2MoO4,0,Pnma,y,y,973,AP,,"{""step1"": {""grind method"": [""mortar""], ""wet/dry"": [], ""liquid"": []}}",{},2,,"Cs2CO3, MoO3",,10.1016/j.jssc.2014.04.003,2014,ICSD 9278 doi not working,FALSE
Cs-Mo-O,mp-17022,[65418],CsMo3O9,0.045911321,C2/m,n,n,,,,{},{},,,,flux,10.1016/0022-4596(87)90090-9,1987,,FALSE
Cs-Nb-O,mp-581217,"[417408, 417409]",Cs2Nb4O11,0,Pnna,y,y,1173,AP,,"{""step1"": {""grind method"": [""agate mortar""], ""wet/dry"": [], ""liquid"": [""acetone""]}}",{},1,,"Cs2CO3, Nb2O5",,10.1007/s10562-019-02827-2,2019,,FALSE
Cs-Nb-O,mp-27556,[1266],CsNbO3,0,P2_1/c,y,y,773,,Ar,{},{},1,,"Cs2O, Nb2O5",,10.1002/zaac.19774360108,1977,,TRUE
Cs-Nd-O,mp-553308,[27336],CsNdO2,0,P6_3/mmc,y,y,853,,Ar,{},"{""step1"": {""cool rate"": [], ""cool time"": [], ""cool medium"": [], ""cool type"": [""quench""], ""end temperature"": [""RT""], ""remark"": []}}",2,,"CsO0.69, Nd2O3",,10.1002/zaac.19754170305,1975,,TRUE
Cs-Ni-O,mp-755100,[423923],Cs2NiO2,0,I4/mmm,y,y,723,,Ar,"{""step1"": {""grind method"": [""agate mortar""], ""wet/dry"": [], ""liquid"": []}}",{},1,,"CsN3, CsNO3, NiO",,10.1515/znb-2012-0110,2011,ICSD 423923 doi not working; confusing cooling profile,FALSE
Cs-Os-O,mp-559998,[246507],CsOs2O6,0,Fd-3m,y,y,,,,{},{},,,,,10.1103/PhysRevB.72.024522,2005,"modelling of pyrochlore CsOs2O6, which can be synthesized via solid state reaction: 10.1143/JPSJ.73.1655",FALSE
Cs-Os-O,mp-1192392,[60075],CsOs2O9,0,Cc,?,?,,,,{},{},,,,,,,ICSD 60075 contain hydrogen,N/A
Cs-Pb-O,mp-562263,[2268],Cs2PbO2,0,P-1,?,?,673,,,{},{},1,,"CsO0.52, PbO",,10.1002/zaac.19784400109,1978,translation issue: might be solid state reaction or from melt,TRUE
Cs-Pb-O,mp-21283,[62140],Cs2PbO3,0.00043354,Cmcm,y,y,773,0,vacuum,{},"{""step1"": {""cool rate"": [{""value"": ""20"", ""unit"": ""C/h""}], ""cool time"": [], ""cool medium"": [], ""cool type"": [], ""end temperature"": [""RT""], ""remark"": []}}",1,,"Cs2O, PbO2",,10.1002/zaac.19875510817,1987,,TRUE
Cs-Pb-O,mp-21521,[2908],Cs2PbO3,0,Cmc2_1,y,?,,,,{},{},,,,,10.1002/zaac.19875510817,1987,old refinement of mp-21283,FALSE
Cs-Pb-O,mp-1199752,[65246],Cs4PbO3,0.002654947,P2_1,?,?,,,,{},{},,,,,10.1002/zaac.19926120124,1992,actual stoichiometry is Cs4PbO4; old refinement of mp-542099,TRUE
Cs-Pb-O,mp-542099,[52532],Cs4PbO4,0,P2_1/c,y,?,,,,{},{},,,"CsO.67, NaO0.44, PbO2",,10.1002/zaac.19926120124,1992,"beta phase; insufficient information: the role of Na oxide in the synthesis; other phase of alpha Cs4PbO4, which can be synthesized via solid state reaction: 10.1002/zaac.19804710107",TRUE
Cs-Pr-O,mp-7646,[1181],Cs2PrO3,0.078716863,Cmc2_1,y,y,893,,,{},{},1,,"CsO0.69, PrO1.83",,10.1002/zaac.19774330120,1977,,TRUE
Cs-Rb-O,mp-572722,[2170],Cs11Rb7O3,0.007711582,P2_12_12_1,n,n,,,,{},{},,,RbxCsy,oxidation,10.1021/ic50182a016,1978,,FALSE
Cs-Re-O,mp-17621,[74505],CsReO4,0,Pnma,n,n,,,,{},{},,,"Cs2CO3, HReO4",precipitation,10.1515/znb-1993-0519,1993,,FALSE
Cs-Re-O,mp-505130,[72817],CsReO4,0.003707922,I4_1/amd,n,n,,,,{},{},,,,,10.1515/znb-1993-0519,1993,high temperature phase of mp-17621,FALSE
Cs-Ru-O,mp-17546,[33799],Cs2RuO4,0,Pnma,y,y,1075,,O2,{},{},2,,"Cs2O, RuO2",,10.1016/0021-9614(90)90200-A,1990,,FALSE
Cs-Sb-O,mp-29970,[411547],Cs3Sb5O14,0,Pbam,y,y,1373,,Ar,{},"{""step1"": {""cool rate"": [{""value"": ""15"", ""unit"": ""C/h""}], ""cool time"": [], ""cool medium"": [], ""cool type"": [], ""end temperature"": [{""value"": ""600"", ""unit"": ""C""}], ""remark"": []}, ""step2"": {""cool rate"": [{""value"": ""20"", ""unit"": ""C/h""}], ""cool time"": [], ""cool medium"": [], ""cool type"": [], ""end temperature"": [""RT""], ""remark"": []}}",1,,"CsO2, Sb2O5",,10.1515/znb-2001-0209,2000,,TRUE
Cs-Sb-O,mp-562072,[279580],Cs3SbO3,0,P2_13,y,y,973,,Ar,{},"{""step1"": {""cool rate"": [{""value"": ""15"", ""unit"": ""C/h""}], ""cool time"": [], ""cool medium"": [], ""cool type"": [], ""end temperature"": [{""value"": ""573"", ""unit"": ""K""}], ""remark"": []}, ""step2"": {""cool rate"": [], ""cool time"": [], ""cool medium"": [], ""cool type"": [""furnace cool""], ""end temperature"": [""RT""], ""remark"": []}}",1,,"CsO2, Sb",,10.1107/S0108270101006230,2001,,FALSE
Cs-Sb-O,mp-1201472,[411211],Cs3SbO4,0,Pnma,y,y,873,,Ar,{},"{""step1"": {""cool rate"": [{""value"": ""5"", ""unit"": ""C/h""}], ""cool time"": [], ""cool medium"": [], ""cool type"": [], ""end temperature"": [""RT""], ""remark"": []}}",1,,"Cs2CO3, Sb2O5",,10.1002/(SICI)1521-3749(200006)626:6<1305::AID-ZAAC1305>3.0.CO;2-L,2000,,TRUE
Cs-Sb-O,mp-553374,[411212],Cs4Sb2O5,0,Cm,y,y,873,,Ar,{},"{""step1"": {""cool rate"": [{""value"": ""5"", ""unit"": ""C/h""}], ""cool time"": [], ""cool medium"": [], ""cool type"": [], ""end temperature"": [""RT""], ""remark"": []}}",1,,"Cs, Sb2O5",,10.1002/(SICI)1521-3749(200006)626:6<1305::AID-ZAAC1305>3.0.CO;2-L,2000,,TRUE
Cs-Sb-O,mp-510273,[59329],CsSbO2,0,C2/c,n,n,,,,{},{},,,"Cs, Sb2O5",from melt,10.1107/S010827019800331X,1998,,FALSE
Cs-Se-O,mp-562442,[66526],Cs2SeO4,0,Pnma,n,n,,,,{},{},,,"CsOH, H2SeO4",hydrothermal,10.1107/S0108270190009039,1991,,FALSE
Cs-Se-O,mp-1102197,[411281],CsSeO4,0.038940455,I4_1/amd,?,?,,,,{},{},,,,,,,ICSD 411281 contain hydrogen,N/A
Cs-Sm-O,mp-7977,[27337],CsSmO2,0,P6_3/mmc,y,y,873,,Ar,{},"{""step1"": {""cool rate"": [], ""cool time"": [], ""cool medium"": [], ""cool type"": [""quench""], ""end temperature"": [""RT""], ""remark"": []}}",2,,"CsO0.69, Sm2O3",,10.1002/zaac.19754170305,1975,,TRUE
Cs-Sn-O,mp-540796,[24392],Cs2Sn2O3,0,Pnma,y,y,753,,,{},{},1,,"CsO0.46, SnO",,10.1002/zaac.19814800910,1981,inhomogeneous,TRUE
Cs-Sn-O,mp-17213,[65970],Cs4SnO4,0,P2_1/c,?,?,,,,{},{},,,,,10.1002/zaac.19905870116,1990,translation issue: might be solid state reaction or from melt,FALSE
Cs-Ta-O,mp-562434,"[281354, 35228]",Cs3Ta5O14,0,Pbam,y,y,1173,,,{},"{""step1"": {""cool rate"": [], ""cool time"": [], ""cool medium"": [], ""cool type"": [""slow cooling""], ""end temperature"": [""RT""], ""remark"": []}}",1,,"Ta2O5, CsO0.75",,10.1107/S1600536803010122,2003,,FALSE
Cs-Ta-O,mp-561942,[30408],Cs3TaO8,0.002726262,I-42m,n,n,,,,{},{},,,,precipitation,"Arkiv for Kemi, Mineralogi och Geologi 15, No 5, 1 (1941)",1942,,FALSE
Cs-Ta-O,mp-542069,[411856],Cs8Ta6O19,0,I4/m,y,y,973,,Ar,{},"{""step1"": {""cool rate"": [{""value"": ""50"", ""unit"": ""C/h""}], ""cool time"": [], ""cool medium"": [], ""cool type"": [], ""end temperature"": [""RT""], ""remark"": []}}",1,,"CsO2, Ta",,10.1002/1521-3749(200112)627:12<2630::AID-ZAAC2630>3.0.CO;2-B,2001,,TRUE
Cs-Tc-O,mp-27250,[365],CsTcO4,0,Pnma,n,n,,,,{},{},,,"NH4TcO4, Cs2CO3",precipitation,10.1021/acs.inorgchem.6b02694,2017,,FALSE
Cs-Te-O,mp-504924,[59166],Cs2Te2O5,0,Pbca,y,y,,,Ar,{},{},,,"Cs2CO3, TeO2",,10.1107/S0108270186095537,1986,,FALSE
Cs-Te-O,mp-1203081,[59167],Cs2Te4O9,0,I-42d,y,y,,,Ar,{},{},,,"Cs2CO3, TeO2",,10.1107/S0108270186095537,1986,,FALSE
Cs-Te-O,mp-614803,[59164],Cs2TeO3,0,P321,y,y,,,Ar,{},{},,,"Cs2CO3, TeO2",,10.1107/S0108270186095537,1986,,FALSE
Cs-Te-O,mp-669353,[88059],Cs2TeO4,0,Pnma,y,y,723,,O2,{},{},1,,"Cs2CO3, TeO2",,10.1016/S0925-8388(98)00849-4,1999,,FALSE
Cs-Te-O,mp-561786,"[59168, 261941]",CsTe2O6,0,R-3m,y,y,,,Ar,{},{},,,"Cs2CO3, TeO2",,10.1107/S0108270186095537,1986,,FALSE
Cs-Te-O,mp-1189034,[261688],CsTe2O6,0.002253891,Fd-3m,y,?,,,,{},{},,,,,10.1021/ic2010375,2011,oxygen deficient sample: stoichiometric sample is rhombohedral,FALSE
Cs-Tl-O,mp-1192166,[422336],Cs4Tl2O,0.023196189,R-3m,y,y,573,,Ar,{},"{""step1"": {""cool rate"": [{""value"": ""5"", ""unit"": ""C/h""}], ""cool time"": [], ""cool medium"": [], ""cool type"": [], ""end temperature"": [""RT""], ""remark"": []}}",1,,"CsTl, Cs2O",,10.1002/zaac.201000405,2010,,FALSE
Cs-U-O,mp-548479,"[30060, 72588]",Cs2U2O7,0,C2/m,y,y,873,,O2,{},"{""step1"": {""cool rate"": [], ""cool time"": [], ""cool medium"": [""dry air""], ""cool type"": [], ""end temperature"": [""RT""], ""remark"": []}}",1,,"Cs2CO3, UO3",,10.1006/jssc.1993.1038,1993,beta phase,FALSE
Cs-U-O,mp-2991,"[59620, 20581]",Cs2UO4,0,I4/mmm,y,y,1023,AP,,"{""step1"": {""grind method"": [""agate mortar""], ""wet/dry"": [], ""liquid"": []}}",{},2,,"CsNO3, U3O8",,10.1016/0021-9614(76)90076-8,1976,,FALSE
Cs-U-O,mp-4393,"[9618, 59622]",Cs4U5O17,0,Pbcn,y,y,1073,AP,,{},{},1,,"Cs2CO3, U3O8",,10.1016/S0022-3115(99)00146-4,2000,,FALSE
Cs-U-O,mp-7322,[4206],CsU2O6,0,Fd-3m,y,?,,,,{},{},,,,,10.1016/0022-1902(75)80917-1,1975,gamma phase,FALSE
Cs-U-O,mp-562572,"[59623, 95688]",CsU2O6,0.014791369,R-3,y,y,1373,,CO2,{},{},1,,"Cs2CO3, U3O8",,10.1016/S0022-3115(99)00146-4,2000,alpha phase,FALSE
Cs-V-O,mp-1192739,"[430711, 430708, 430710, 430709, 251010]",Cs2V3O8,0,P4bm,n,n,,,,{},{},,,"V2O5,H2C2O4·H2O H2O, Cs2CO3 ",hydrothermal,10.1021/ic400601n,2013,,FALSE
Cs-V-O,mp-28948,[79409],Cs2V4O9,0,I-42d,y,?,,,,{},{},,,,,10.1006/jssc.1995.1117,1995,beta phase; other phase of mp-560444; minority phase,FALSE
Cs-V-O,mp-560444,[79408],Cs2V4O9,8.68E-05,P4_2/m,y,y,783,0,vacuum,{},{},2,,"V2O3, CsVO3",,10.1006/jssc.1995.1117,1995,alpha phase; inhomogeneous,FALSE
Cs-V-O,mp-616573,[849],Cs2V5O13,0,I4mm,y,y,723,0,vacuum,{},{},1,,"CsVO3, V2O5, V2O3",,10.1107/S0567740877004646,1977,,FALSE
Cs-V-O,mp-1078919,[187267],CsV2O5,0.107120418,P6mm,y,y,773,,CO,{},"{""step1"": {""cool rate"": [{""value"": ""10"", ""unit"": ""C/h""}], ""cool time"": [], ""cool medium"": [], ""cool type"": [], ""end temperature"": [{""value"": ""100"", ""unit"": ""C""}], ""remark"": []}}",1,y,"Cs2CO3, V2O5",,10.1016/j.inoche.2012.10.023,2013,,FALSE
Cs-V-O,mp-540690,"[850, 16279]",CsV2O5,0.101802174,P2_1/c,y,y,1173,0,vacuum,{},{},1,,"CsVO3, V2O5, V2O3, CsO",,10.1016/S0304-8853(97)00342-9,1998,other phase of mp-1078919,FALSE
Cs-V-O,mp-651814,"[50010, 23976]",CsV3O8,0,P2_1/m,y,y,600,AP,,{},{},1,,"Cs2CO3, V2O5",,10.1021/ja992541y,1999,,FALSE
Cs-V-O,mp-504651,[1489],CsVO3,0,Pbcm,y,y,1023,AP,,{},{},1,,"Cs2CO3, V2O5",,10.1016/0025-5408(91)90081-V,1991,recent papers used water-assisted solid state reaction or methanol during mixing for better blending,FALSE
Cs-W-O,mp-1193656,[24903],Cs2WO4,0.00051312,Pnma,y,y,1273,AP,,{},{},1,,"WO3, Cs2CO3",,10.1107/S0567740870005277,1970,,FALSE
Cs-W-O,mp-21857,[72634],CsW2O6,0.005063222,Fd-3m,y,y,923,0,vacuum,{},{},1,,"Cs2WO4, WO3, WO2",,10.1006/jssc.1993.1111,1993,inhomogeneous,FALSE
Cs-Zn-O,mp-504601,[2378],Cs2ZnO2,0,P2_1/c,y,y,683,,,{},{},1,,"CsN3, CsNO3, ZnO",,10.1002/(SICI)1521-3773(19990115)38:1/2<133::AID-ANIE133>3.0.CO;2-1,2004,,FALSE
Cs-Zn-O,mp-1019612,[423335],Cs4ZnO3,0,P2_1/c,n,n,,,,{},{},,,"Cs, Cs2O, ZnO",from melt,10.1515/znb-2011-1209,2011,ICSD 423335 doi not working,FALSE
Cs-Zr-O,mp-8759,[67345],Cs2ZrO3,0,Cmcm,y,y,,,,{},{},1,,"ZrO2, CsO2",,10.1021/cm00001a012,1989,,FALSE
Cs-Zr-O,mp-28543,[65160],Cs4ZrO4,0,P2_1/c,y,y,923,,Ar,{},{},2,,"Cs, CsO2, ZnO",,10.1002/zaac.19875531006,1987,from abstract,FALSE
Cu-Ag-O,mp-4362,"[165570, 87609, 51672, 51502]",Cu2Ag2O3,0.022781347,I4_1/amd,y,y,773,0.2,O2,{},{},1,,"Ag2O, CuO, KOH",,10.1006/jssc.2001.9091,2001,KOH as accelerator,FALSE
Cu-Ag-O,mp-7237,"[93880, 95089, 95384]",CuAgO2,0.019193228,C2/m,n,n,,,,{},{},,,"AgNO3, Cu(NO3)2·3H2O, KOH, K2S2O8, H2O",precipitation,10.1006/jssc.2001.9255,2001,,FALSE
Cu-As-O,mp-554298,[162062],Cu2As2O7,0.012280791,C2/c,n,n,,,,{},{},,,"CuO, As2O5, Cl",chemical transport reaction,10.1021/cg049782o,2004,alpha phase,FALSE
Cu-As-O,mp-13128,[162061],Cu2As2O7,0.013613039,C2/m,n,n,,,,{},{},,,,,10.1021/cg049782o,2004,beta phase; high temperature phase of mp-554298,FALSE
Cu-As-O,mp-540858,"[5255, 24198]",Cu3As2O8,0.00377443,P2_1/c,n,n,,,,{},{},,,"CuCl, Na2HAsO4",from melt,10.1139/v68-153,1968,,FALSE
Cu-As-O,mp-21209,[63057],Cu3As2O8,0,P-1,n,n,,,,{},{},,,,,10.1007/BF00809262,1988,other phase of mp-540858,FALSE
Cu-As-O,mp-554614,[201733],Cu3As2O8,0.005499647,P2_1/c,n,?,,,,{},{},,,,,pubs.geoscienceworld.org/msa/ammin/article/71/1-2/206/41801,1986,other phase or refinement of mp-540858,FALSE
Cu-As-O,mp-1102432,[87869],Cu3AsO7,0.033535495,P1,?,?,,,,{},{},,,,,,,ICSD 87869 contain hydrogen,N/A
Cu-As-O,mp-21770,"[239833, 81295, 66929]",Cu4As2O9,0.022414342,Pnma,y,?,,,,{},{},,,,,10.1021/ic00126a002,1995,,FALSE
Cu-As-O,mp-559159,[404850],Cu4As2O9,0.029787027,P-1,y,y,1323,AP,,"{""step1"": {""grind method"": [""mixed""], ""wet/dry"": [], ""liquid"": [""acetone""]}}","{""step1"": {""cool rate"": [{""value"": ""20"", ""unit"": ""C/h""}], ""cool time"": [], ""cool medium"": [], ""cool type"": [], ""end temperature"": [{""value"": ""300"", ""unit"": ""C""}], ""remark"": []}, ""step2"": {""cool rate"": [], ""cool time"": [], ""cool medium"": [""air""], ""cool type"": [""quench""], ""end temperature"": [""RT""], ""remark"": []}}",2,,"CuO, As2O5·5H2O",,10.1515/znb-1996-0910,1996,other phase or refinement of mp-21770,TRUE
Cu-As-O,mp-22271,"[4287, 16829]",CuAs2O4,0.058680551,P4_2/mbc,n,n,,,,{},{},,,"As2O3, CuO",hydrothermal,10.1007/BF01087840,1975,,TRUE
Cu-Bi-O,mp-505042,"[68814, 56390, 68813, 69746, 68812, 15865, 68815, 69747, 69308, 69307, 67018, 71313, 202994]",CuBi2O4,0.005884686,P4/ncc,y,y,1023,AP,,"{""step1"": {""grind method"": [""centrifugal milling ""], ""wet/dry"": [], ""liquid"": [""isopropyl alcohol""]}}",{},1,,"Bi2O3, CuO",,10.1088/0953-8984/2/9/010,1989,,FALSE
Cu-Bi-O,mp-560165,[12104],CuBi2O4,0.089460008,I4cm,y,?,,,,{},{},,,,,10.1088/0953-8984/2/9/010,1989,old refinement of mp-505042,FALSE
Cu-Ge-O,mp-9600,[100796],Cu2GeO4,0.087502244,I4_1/amd,y,y,1373,4,,{},"{""step1"": {""cool rate"": [], ""cool time"": [], ""cool medium"": [], ""cool type"": [""quench""], ""end temperature"": [""RT""], ""remark"": []}}",2,,"CuO, GeO2",,10.1016/0025-5408(81)90009-X,1981,,FALSE
Cu-Ge-O,mp-21344,"[56700, 89404, 50331, 56607, 16834, 89406, 78475, 89403, 89400, 50329, 85326, 411019, 89407, 411020, 89405, 411018, 89402, 50330, 85324, 85325, 56702, 56606, 411017, 56701, 56699, 89401, 25754, 246664]",CuGeO3,0.047548204,Pmma,y,y,1173,AP,,{},{},1,,"CuO, GeO2",,10.1002/(SICI)1521-3749(200001)626:1<36::AID-ZAAC36>3.0.CO;2-2,2000,,FALSE
Cu-Ge-O,mp-554874,[96085],CuGeO3,0.111982007,P2_1/c,y,y,,,,{},{},,,,,10.1103/PhysRevB.65.134105,2002,high pressure phase of mp-21344,FALSE
Cu-Ge-O,mp-1202570,[56878],CuGeO3,0.021557498,Pbam,y,?,,,,{},{},,,,,10.1088/0953-8984/9/4/003,1997,other refinement or phase of mp-21344,FALSE
Cu-Mo-O,mp-1192830,[40084],Cu3Mo2O10,0.037359286,P2_1/c,?,?,,,,{},{},,,,,,,ICSD 40084 contain hydrogen,N/A
Cu-Mo-O,mp-649957,[9155],Cu3Mo2O9,0.04183782,Pna2_1,y,?,,,,{},{},,,,,10.1107/S0108270197005751,1997,old refinement of mp-639719,FALSE
Cu-Mo-O,mp-1193763,[190444],Cu3Mo2O9,0.034984197,P-1,y,n,,,,{},{},,,,hydrothermal,10.7566/JPSJ.82.054802,2013,beta phase; other phase of mp-639719,FALSE
Cu-Mo-O,mp-639719,"[173779, 154263, 59289, 2836]",Cu3Mo2O9,0.040949921,Pnma,y,y,773,0,vacuum,{},{},1,,"CuO, MoO3",,10.1002/zaac.19966220826,1996,,TRUE
Cu-Mo-O,mp-650741,"[202053, 61032]",Cu4Mo5O17,0.031994461,P-1,y,y,1023,0,vacuum,{},{},1,y,"Cu2O, MoO3",,10.1002/zaac.19855301102,1985,from abstract,FALSE
Cu-Mo-O,mp-5511,"[201757, 61049]",Cu6Mo5O18,0.036287154,C2/c,?,?,,,,{},{},,,,,10.1016/j.materresbull.2010.07.004,2010,minority phase,FALSE
Cu-Mo-O,mp-1198174,[391230],CuMo3O11,0.290331003,Pnma,?,?,,,,{},{},,,,,,,ICSD 391230 contain hydrogen,N/A
Cu-Mo-O,mp-558040,[160867],CuMoO4,0.042092629,P2_1/c,y,n,,,,{},{},,,"MoO3, CuO, CuBr2",flux,10.1021/cm801162j,2008,other phase of mp-541991,FALSE