system,mp_id,icsd_ids,composition,e_above_hull,Spacegroup Number,solid_state_synthesized_composition,solid_state_synthesized_structure,sss_highest_temperature(K),sss_pressure(GPa),sss_atmosphere,sss_mixing_condition,sss_cooling_condition,sss_heating_step,single_crystal,sss_precursor,other_synthesis_method,reference,reference_year,comment,google_translate
Y-Hf-O,mp-561442,[153819],Y2Hf2O7,0.000294956,Fd-3m,y,?,,,,{},{},,,,,10.1103/PhysRevB.72.085107,2005,modelling of pyrochlore Y2Hf2O7; defective fluorite phase has been synthesized via solid state synthesis: 10.1016/j.optmat.2012.09.016,FALSE
Y-In-O,mp-504607,[251],YInO3,0.004552235,P6_3cm,y,y,1573,AP,,"{""step1"": {""grind method"": [""agate mortar""], ""wet/dry"": [], ""liquid"": [""ethanol""]}}",{},2,,"Y2O3, In2O3",,10.1021/ja9080666,2009,,FALSE
Y-Ir-O,mp-1191749,[187534],Y2Ir2O7,0,Fd-3m,y,y,1273,AP,,{},{},1,,"Y2O3, IrO2",,10.1103/PhysRevB.85.214434,2012,,FALSE
Y-Mn-O,mp-18831,"[56516, 202516]",Y2Mn2O7,0,Fd-3m,y,y,1573,0.04,O2/Ar,{},{},1,,"Y2O3, MnO2",,10.1103/PhysRevB.59.1249,1999,,FALSE
Y-Mn-O,mp-510598,"[165869, 165870, 167328, 159271]",YMn2O5,0,Pbam,y,y,1223,AP,,{},{},1,,"Y2O3, MnO2",,10.1016/j.physc.2010.02.002,2010,,FALSE
Y-Mn-O,mp-19385,"[195447, 195446, 280589, 422987, 422985, 163216, 191978, 163217, 182286, 164406, 182285, 422984, 247620, 290276, 422988, 422983, 181183, 250880, 247621, 98061, 422986, 164405, 98060, 154127, 280590, 162200]",YMnO3,0.350141603,P6_3cm,y,y,1473,AP,,"{""step1"": {""grind method"": [""mixed""], ""wet/dry"": [], ""liquid"": [""acetone""]}}",{},1,,"Y2O3, MnO2",,10.1103/PhysRevB.83.094111,2010,,FALSE
Y-Mn-O,mp-20699,"[188567, 190398, 162207, 166217, 236365, 56617]",YMnO3,0.002451676,Pnma,y,y,,,,{},{},,,,,10.1103/PhysRevB.57.2872,1997,"high temperature/pressure phase of mp-19385; ICSD 166217, 236365 not found",FALSE
Y-Mn-O,mp-19227,"[422989, 422982, 422990, 73361, 181182, 182284]",YMnO3,0,P6_3/mmc,y,y,,,,{},{},,,,,10.1103/PhysRevB.83.094111,2011,high temperature phase of mp-19385,FALSE
Y-Mo-O,mp-1198660,[290658],Y2Mo3O12,0.027379172,P-42_1m,y,?,,,,{},{},,,,,10.1039/C3NJ00166K,2013,other refinement of mp-556455,FALSE
Y-Mo-O,mp-556937,[414554],Y2Mo3O12,0,Pbcn,y,y,1073,AP,,{},{},3,,"Y2O3, MoO3",,10.1016/j.solidstatesciences.2005.08.012,2005,,FALSE
Y-Mo-O,mp-556455,"[423397, 160286]",Y2Mo3O12,0.027218196,Pba2,y,y,,,,{},{},,,,,10.1016/j.jssc.2007.10.011,2007,other phase of mp-556937,FALSE
Y-Mo-O,mp-18265,[202522],Y2Mo2O7,0,Fd-3m,y,y,1673,,CO/CO2,{},{},1,,"Y2O3, MoO2",,10.1016/0038-1098(86)90652-6,1986,,FALSE
Y-Mo-O,mp-1203448,[4220172],Y2Mo4O15,0.018369301,P2_1/c,y,y,1123,0,vacuum,{},{},1,,"Y2O3, MoO3",,10.1039/C3NJ00166K,2013,,FALSE
Y-Mo-O,mp-31124,[99575],Y2MoO6,0,C2/c,y,y,1423,AP,,{},{},1,,"Y2O3, MoO3",,10.1016/j.jssc.2004.03.046,2004,,FALSE
Y-Mo-O,mp-16393,[281037],Y4Mo4O11,0.209399488,Pbam,y,y,1673,,Ar,{},"{""step1"": {""cool rate"": [{""value"": ""100"", ""unit"": ""C/h""}], ""cool time"": [], ""cool medium"": [], ""cool type"": [], ""end temperature"": [{""value"": ""1100"", ""unit"": ""C""}], ""remark"": []}, ""step2"": {""cool rate"": [], ""cool time"": [], ""cool medium"": [], ""cool type"": [""furnace cool""], ""end temperature"": [""RT""], ""remark"": []}}",1,,"MoO3, Mo, Y2O3",,10.1021/ic011000i,2002,,FALSE
Y-Mo-O,mp-18821,"[60957, 62215]",Y5Mo2O12,0.074985449,C2/m,y,y,1523,0,vacuum,{},{},1,,,,10.1016/0022-4596(85)90284-1,1985,,FALSE
Y-Nb-O,mp-1095229,"[430922, 239209, 430917, 430919, 430921, 430920, 430918, 239208]",YNbO4,0.00184094,I4_1/a,y,y,,,,{},{},,,,,10.1111/jace.13095,2014,high temperature phase of mp-5387,FALSE
Y-Nb-O,mp-5387,"[239207, 430916, 430911, 430907, 430015, 430908, 430910, 430914, 430913, 430909, 430912, 100176, 20335]",YNbO4,0,C2/c,y,y,1573,AP,,"{""step1"": {""grind method"": [""agate mortar""], ""wet/dry"": [], ""liquid"": []}}","{""step1"": {""cool rate"": [], ""cool time"": [], ""cool medium"": [], ""cool type"": [], ""end temperature"": [""RT""], ""remark"": []}}",1,,"Y2O3, Nb2O5",,10.1039/C7RA02721D,2017,doped: Er 0.5%,FALSE
Y-Ni-O,mp-19242,"[191794, 89417, 92047, 88043]",YNiO3,0,Pnma,y,y,1173,2,,{},"{""step1"": {""cool rate"": [], ""cool time"": [], ""cool medium"": [], ""cool type"": [""quench""], ""end temperature"": [""RT""], ""remark"": []}}",1,,"KClO4, Y2O3, NiO",,10.1021/ja984015x,1999,,FALSE
Y-Pd-O,mp-15053,[78846],YPd2O4,0,I4_1/a,y,y,1125,2,,{},{},1,,"Y2O3, KClO3, PdO",,10.1002/zaac.19966220617,1996,,TRUE
Y-Re-O,mp-13627,[15505],Y3ReO8,0,P2_1/c,y,y,1173,AP,,{},{},1,,"Re2O7, Y2O3",,10.1016/0022-4596(81)90034-7,1981,,TRUE
Y-Ru-O,mp-20643,"[73799, 79733]",Y2Ru2O7,0.030399997,Fd-3m,y,y,1473,AP,,{},{},2,,"RuO2, Y2O3",,10.1006/jssc.1998.8113,1999,inhomogeneous,FALSE
Y-Sb-O,mp-981511,[174071],Y3SbO7,0,Cmcm,y,y,1473,AP,,{},"{""step1"": {""cool rate"": [], ""cool time"": [], ""cool medium"": [], ""cool type"": [""furnace cool""], ""end temperature"": [""RT""], ""remark"": []}}",2,,"Y2O3, Sb2O3",,10.1016/j.jssc.2009.06.028,2009,,FALSE
Y-Sc-O,mp-755165,[237285],YScO3,0.028690579,Pnma,y,y,1723,AP,,"{""step1"": {""grind method"": [""agate mortar""], ""wet/dry"": [], ""liquid"": [""acetone""]}}",{},2,,"Y2O3, Sc2O3",,10.1021/jp310878b,2013,,FALSE
Y-Sn-O,mp-3370,"[153817, 74706, 160115, 84805, 24193, 157673, 84803]",Y2Sn2O7,0,Fd-3m,y,y,1623,AP,,{},"{""step1"": {""cool rate"": [], ""cool time"": [], ""cool medium"": [], ""cool type"": [], ""end temperature"": [""RT""], ""remark"": []}}",1,,"Y2O3, SnO2",,10.1016/j.actamat.2006.11.008,2007,,FALSE
Y-Ta-O,mp-11321,[10059],Y3TaO7,0,C222_1,y,?,,,,{},{},,,,,10.1016/j.jssc.2009.06.028,2009,old refinement of mp-1190968,FALSE
Y-Ta-O,mp-1190968,[174069],Y3TaO7,0.00563528,Cmcm,y,y,1773,AP,,{},"{""step1"": {""cool rate"": [], ""cool time"": [], ""cool medium"": [], ""cool type"": [""furnace cool""], ""end temperature"": [""RT""], ""remark"": []}}",1,,"Y2O3, Ta2O5",,10.1016/j.jssc.2009.06.028,2009,,FALSE
Y-Ta-O,mp-5377,"[36076, 20265, 38420, 15352]",YTaO4,0,P2/c,y,y,1673,,inert gas,"{""step1"": {""grind method"": [""agate mortar""], ""wet/dry"": [], ""liquid"": []}}",{},1,,"Y2O3, Ta2O5",,10.1016/j.mseb.2013.08.003,2013,M'-type,FALSE
Y-Ta-O,mp-559289,"[238536, 109190]",YTaO4,0.005360082,C2/c,y,y,,,,{},{},,,,,10.1107/S0365110X67004098,1967,M-type; high temperature phase of mp-5377,FALSE
Y-Te-O,mp-684017,[418854],Y2Te4O11,0.002660911,C2/c,y,y,770,,O2,"{""step1"": {""grind method"": [""mixed""], ""wet/dry"": [], ""liquid"": [""ethanol""]}}",{},1,,"Y2O3, TeO2",,10.1016/j.jeurceramsoc.2012.07.015,2012,,FALSE
Y-Te-O,mp-554852,[418855],Y2Te5O13,0,P-1,y,y,770,,O2,"{""step1"": {""grind method"": [""mixed""], ""wet/dry"": [], ""liquid"": [""ethanol""]}}",{},1,,"Y2O3, TeO2",,10.1016/j.jeurceramsoc.2012.07.015,2012,,FALSE
Y-Te-O,mp-17066,[240875],Y2TeO6,0,P2_12_12_1,y,?,1373,,O2,"{""step1"": {""grind method"": [""mixed""], ""wet/dry"": [], ""liquid"": [""ethanol""]}}",{},1,,"Y2O3, TeO2",,10.1016/j.jeurceramsoc.2012.07.015,2012,insufficient information: uncertainty which polymorph was synthesized,FALSE
Y-Te-O,mp-754359,[247820],Y6TeO12,0,R-3,y,y,1373,,O2,"{""step1"": {""grind method"": [""mixed""], ""wet/dry"": [], ""liquid"": [""ethanol""]}}",{},1,,"Y2O3, TeO2",,10.1016/j.jeurceramsoc.2012.07.015,2012,,FALSE
Y-Ti-O,mp-5373,"[196407, 239724, 157666, 42702, 157667, 66874, 153820, 83593, 167563, 24206, 191622, 93770, 160111, 15633, 164023, 14242]",Y2Ti2O7,0.009195068,Fd-3m,y,y,1523,AP,,{},{},1,,"Y2O3, TiO2",,10.1002/pssb.201451297,2014,,FALSE
Y-Ti-O,mp-17559,"[34692, 167564]",Y2TiO5,0,Pnma,y,y,1773,AP,,{},{},1,,"Y2O3, TiO2",,10.1002/pssb.201451297,2014,ICSD 167564 not found,FALSE
Y-Ti-O,mp-4355,"[8150, 84610, 20903, 84609, 174118, 84608]",YTiO3,0.057952317,Pnma,y,y,1773,0,vacuum,{},{},1,,"Y2O3, TiO2",,10.1103/PhysRevB.48.511,1993,off-stoichiometric,FALSE
Y-U-O,mp-27698,[23966],Y6UO12,0,R-3,y,y,1673,AP,,"{""step1"": {""grind method"": [""agate mortar""], ""wet/dry"": [], ""liquid"": []}}",{},1,,"Y2O3, U3O8",,10.1080/00223131.2012.677128,2011,,FALSE
Y-V-O,mp-642779,[160600],Y2V2O7,0.669803324,Fd-3m,y,?,,,,{},{},,,,,10.1016/j.jcrysgro.2007.10.069,2008,other refinement of mp-642787,FALSE
Y-V-O,mp-642787,[160865],Y2V2O7,0.01196893,Fd-3m,y,y,1473,5.5,,{},"{""step1"": {""cool rate"": [{""value"": ""30"", ""unit"": ""C/s""}], ""cool time"": [], ""cool medium"": [], ""cool type"": [""quench""], ""end temperature"": [""RT""], ""remark"": []}}",1,,"Y2O3, V2O5, V2O3",,10.1021/cg800010g,2008,,FALSE
Y-V-O,mp-1201610,[262403],Y2VO5,0.061215964,C2/c,n,n,,,,{},{},,,,hydrothermal,10.1021/ic2024132,2012,,FALSE
Y-V-O,mp-18883,"[155479, 95579, 246953, 155480, 246954, 155478, 95577, 155476, 250766, 95578, 250767, 250765, 155477, 190290, 185836]",YVO3,0,Pnma,?,?,1273,2,,{},{},,,,,10.1103/PhysRevB.69.054111,2003,insufficent information: uncertain if the mentioned heating step was refered to the last step of soft chem route or separate synthesis,FALSE
Y-V-O,mp-19133,"[78074, 36060, 26894, 174549, 107638, 15604, 2504, 246709, 246708]",YVO4,0,I4_1/amd,y,y,1523,AP,,"{""step1"": {""grind method"": [""ball milling""], ""wet/dry"": [], ""liquid"": [""ethanol""]}}",{},1,,"Y2O3, V2O5",,10.1016/j.jlumin.2008.10.001,2009,doped: Bi 2%,FALSE
Y-W-O,mp-556220,[35239],Y10W2O21,0.009308036,Pbcn,y,y,1873,AP,,"{""step1"": {""grind method"": [""agate mortar""], ""wet/dry"": [], ""liquid"": []}}",{},1,,"Y2O3, WO3",,10.1016/j.jssc.2010.03.009,2010,,FALSE
Y-W-O,mp-3629,"[90939, 90938]",Y2W3O12,0.024384492,Pbcn,y,y,1373,AP,,"{""step1"": {""grind method"": [""mixed""], ""wet/dry"": [], ""liquid"": [""acetone""]}}",{},3,,"Y2O3, WO3",,10.1006/jssc.1999.8502,2000,,FALSE
Y-W-O,mp-559510,[20955],Y2WO6,0,P2/c,y,y,1373,AP,,{},{},3,,"Y2O3, WO3",,10.1016/j.jallcom.2014.12.161,2015,,FALSE
Y-W-O,mp-559085,[26532],Y2WO6,0.011978117,P2_12_12_1,y,y,,,,{},{},,,,,10.1016/0025-5408(78)90107-1,1978,high temperature phase of mp-559510,FALSE
Y-W-O,mp-30539,[65811],Y2WO6,0.000714207,P2_12_12_1,y,?,,,,{},{},,,,,,,might be other refinement of mp-559085 or other phase of mp-559510,N/A
Y-W-O,mp-19005,"[100196, 92037]",Y6WO12,0,R-3,y,y,2023,AP,,{},{},1,,"Y2O3, WO3",,10.1016/0025-5408(78)90220-9,1978,,FALSE
Y-Zr-O,mp-558411,[153818],Y2Zr2O7,0.059594232,Fd-3m,y,y,,,,{},{},,,,,10.1103/PhysRevB.72.085107,2005,"modelling of pyrochlore Y2Zr2O7, which has been synthesized via solid state synthesis: 10.1002/bio.3741",FALSE
Yb-Ag-O,mp-13166,[163472],YbAgO2,0.129474794,R-3m,n,n,,,,{},{},,,"NaYbO2, AgNO3, KNO3",ion exchange,10.2109/jcersj2.116.118,2008,,FALSE
Yb-Al-O,mp-3800,"[280607, 23847, 170159, 170160]",Yb3Al5O12,0.036277721,Ia-3d,y,y,1423,AP,,{},{},1,,"Yb2O3, Al2O3",,10.1016/j.ceramint.2014.09.117,2015,,FALSE
Yb-Al-O,mp-1188667,[168212],YbAlO3,0.007369319,Pnma,y,y,1723,AP,,"{""step1"": {""grind method"": [""agate mortar""], ""wet/dry"": [], ""liquid"": []}}","{""step1"": {""cool rate"": [], ""cool time"": [], ""cool medium"": [], ""cool type"": [], ""end temperature"": [""RT""], ""remark"": []}}",2,,"Al2O3, Yb2O3",,10.1016/j.optmat.2016.01.034,2016,,FALSE
Yb-As-O,mp-9799,[402951],Yb4As2O,0,I4/mmm,?,?,1273,,Ar,{},{},1,y,"Yb, As, As2O3",,10.1524/ncrs.1998.213.14.13,1998,byproduct,FALSE
Yb-As-O,mp-12387,[171193],YbAsO4,0,I4_1/amd,?,?,1123,0,vacuum,{},{},1,,"Yb2O3, YCl3, As2O3",,10.1107/S1600536805036457,2005,insufficent information: uncertain whether it can be synthesized without flux; inhomogeneous,FALSE
Yb-Co-O,mp-687081,[172051],YbCoO3,0,Pnma,y,y,1173,2,,{},"{""step1"": {""cool rate"": [], ""cool time"": [], ""cool medium"": [], ""cool type"": [""quench""], ""end temperature"": [""RT""], ""remark"": []}}",1,,"KClO4, Yb2O3, Co(OH)2",,10.1039/B515607F,2006,,FALSE
Yb-Cr-O,mp-1207582,[251105],YbCrO3,0.122296852,Pnma,y,y,1723,AP,,{},{},1,,"Yb2O3, Cr2O3",,10.1016/j.jallcom.2015.12.077,2016,,FALSE
Yb-Cr-O,mp-19023,"[51906, 26987]",YbCrO4,0,I4_1/amd,y,y,773,,O2,{},{},3,,"Yb(NO3)3·6H2O, Cr(NO3)3·9H2O",,10.1006/jssc.2001.9476,2002,,FALSE
Yb-Cr-O,mp-1198773,[72151],YbCrO5,0.354608702,P2_1/c,?,?,,,,{},{},,,,,,,ICSD 72151 contain hydrogen,N/A
Yb-Cu-O,mp-20205,"[69328, 79432, 72555]",Yb2Cu2O5,0,Pna2_1,y,y,1253,AP,,{},{},2,,"Yb2O3, CuO",,10.1016/0925-8388(93)90081-W,1993,,FALSE
Yb-Fe-O,mp-19317,"[195809, 195811, 195810, 4192]",YbFe2O4,0.958648227,R-3m,y,y,1473,,"air,CO/CO2",{},{},1,,"Yb2O3, Fe2O3",,10.1103/PhysRevB.90.094119,2014,,FALSE
Yb-Fe-O,mp-19064,"[30, 8293]",Yb2Fe3O7,0.07141155,P6_3/mmc,y,y,1473,,"air,CO2/H2","{""step1"": {""grind method"": [""agate mortar""], ""wet/dry"": [], ""liquid"": [""ethanol""]}}",{},1,,"Yb2O3, Fe2O3",,10.1016/0038-1098(74)90050-7,1974,,FALSE
Yb-Fe-O,mp-562055,[23854],Yb3Fe5O12,0.052197052,Ia-3d,y,y,1673,AP,,{},{},2,,"Yb2O3, Fe2O3",,10.1063/1.3676450,2012,,FALSE
Yb-Fe-O,mp-19793,"[189735, 27284]",YbFeO3,0,Pnma,y,y,1473,AP,,"{""step1"": {""grind method"": [""agate mortar""], ""wet/dry"": [], ""liquid"": [""ethanol""]}}",{},2,,"Fe2O3, Yb2O3",,10.1016/j.jallcom.2019.02.141,2019,,FALSE
Yb-Ga-O,mp-562499,[23851],Yb3Ga5O12,0,Ia-3d,y,y,1373,AP,,{},{},1,,,,10.1088/0953-8984/15/26/313,2003,,FALSE
Yb-Ge-O,mp-22127,[65618],Yb2Ge2O7,0.029327772,Fd-3m,y,y,1573,6,,{},{},2,,"Yb2O3, GeO2",,10.1103/PhysRevB.93.104405,2016,,FALSE
Yb-Ge-O,mp-557625,[413387],Yb3GeO,0.002166916,Pnma,n,n,,,,{},{},,,"Yb, Ge, GeO2",from melt,10.1002/zaac.200300313,2004,,TRUE
Yb-Mn-O,mp-704504,[97049],YbMn2O5,0.32754713,Pbam,y,y,1173,AP,,{},{},1,,"Yb2O3, Mn2O3",,10.1023/B:GPAC.0000016398.88746.0b,2004,,FALSE
Yb-Mn-O,mp-19356,"[174277, 162203, 69539, 279601, 163248, 160749]",YbMnO3,0.041423483,P6_3cm,y,y,1573,AP,,{},{},1,,"Yb2O3, MnO2",,10.1107/S0021889807025101,2007,,FALSE
Yb-Mn-O,mp-22518,"[171759, 171760, 162210]",YbMnO3,0.039994538,Pnma,y,y,,,,{},{},,,,,10.1021/cm052758t,2006,high temperature/pressure phase of mp-19356,FALSE
Yb-Mo-O,mp-558044,[99574],Yb2MoO6,0.11284617,C2/c,y,y,1423,AP,,{},{},1,,"MoO3, Yb2O3",,10.1016/j.jssc.2004.03.046,2004,,FALSE
Yb-Nb-O,mp-5466,"[73393, 20410]",YbNbO4,0,C2/c,y,y,1673,AP,,{},{},2,,"Yb2O3, Nb2O5",,10.1016/0025-5408(77)90084-8,1977,,FALSE
Yb-Ni-O,mp-19249,"[189293, 151949, 189294, 189292, 92050, 189297, 189299, 189298]",YbNiO3,0,Pnma,y,y,1173,2,,{},{},1,,"Yb2O3, Ni(OH)2",,10.1103/PhysRevB.87.184111,2013,,FALSE
Yb-Pb-O,mp-11652,[413389],Yb3PbO,0,Pm-3m,n,n,,,,{},{},,,"Yb, PbO",from melt,10.1002/zaac.200300313,2004,,TRUE
Yb-Re-O,mp-613455,[39737],YbRe3O12,0,P6_3/m,?,?,,,,{},{},,,,,"Koordinatsionnaya Khimiya 19, 871 (1993)",1993,translation issue: russian,FALSE
Yb-Re-O,mp-1198151,[96424],YbRe3O16,0.506501932,P2_1/c,?,?,,,,{},{},,,,,,,ICSD 96424 contain hydrogen,N/A
Yb-Ru-O,mp-22259,[82306],Yb2Ru2O7,0,Fd-3m,y,y,1473,AP,,"{""step1"": {""grind method"": [""agate mortar""], ""wet/dry"": [], ""liquid"": []}}",{},4,,"RuO2, Yb2O3",,10.1006/jssc.1996.0337,1996,,FALSE
Yb-Se-O,mp-649509,[39932],Yb2Se3O12,0,P2_1/c,?,?,,,,{},{},,,,,"Zhurnal Neorganicheskoi Khimii 40, 1768 (1995)",1995,translation issue: russian,FALSE
Yb-Se-O,mp-13976,[25811],Yb2SeO2,0.499220182,P-3m1,n,n,,,,{},{},,,"H2Se, Yb2O3",solid-gas reaction,10.1107/S0365110X60000339,1960,,FALSE
Yb-Sn-O,mp-20342,[82964],Yb2Sn2O7,0.021188892,Fd-3m,y,y,1473,AP,,"{""step1"": {""grind method"": [""agate mortar""], ""wet/dry"": [], ""liquid"": []}}",{},2,,"Yb2O3, SnO2",,10.1134/S0020168517050053,2017,,FALSE
Yb-Sn-O,mp-11651,[413388],Yb3SnO,0,Pm-3m,?,?,,,,{},{},,,,,10.1002/zaac.200300313,2004,translation issues: might be melt or solid state reaction,FALSE
Yb-Ta-O,mp-1202362,[56484],Yb4Ta25O68,0,P-62c,y,y,1573,,,{},{},1,,"Yb, Ta2O5",,"Crystal Structure Communications 2, 209 (1973)",1999,,TRUE
Yb-Ta-O,mp-555296,[95210],YbTaO4,0.004915721,C2/c,y,y,,,,{},{},,,,,10.1016/S0925-8388(02)00504-2,2002,other phase of mp-4574,FALSE
Yb-Ta-O,mp-4574,"[95209, 415460]",YbTaO4,0,P2/c,y,y,1573,AP,,"{""step1"": {""grind method"": [""pestle and mortar""], ""wet/dry"": [], ""liquid"": []}}",{},1,,"Yb2O3, Ta2O5",,10.1016/j.jlumin.2016.06.054,2016,,FALSE
Yb-Te-O,mp-683907,[413663],Yb2Te4O11,0.016222728,C2/c,n,n,,,,{},{},,,,flux,10.1515/znb-2004-0802,2004,,TRUE
Yb-Te-O,mp-683904,[413668],Yb2Te5O13,0.035311233,P-1,n,n,,,,{},{},,,,flux,10.1515/znb-2005-0704,2005,,TRUE
Yb-Te-O,mp-8504,[62135],Yb2TeO6,0,P321,y,y,1173,AP,,{},{},3,,"TeO2, Tb2O3",,10.1016/j.arabjc.2016.06.010,2019,inhomogeneous,FALSE
Yb-Ti-O,mp-22431,"[252237,188872,190694,190688,186196,190697,190695,173750,190684,190698,190686,190685,161405,190696,190687,191613,186195]",Yb2Ti2O7,0.172,Fd-3m,y,y,1873,,"air,Ar","{""step1"": {""grind method"": [""agate mortar""], ""wet/dry"": [], ""liquid"": []}}",{},2,,"Yb2O3, TiO2",,10.1103/PhysRevB.92.024110,2015,,FALSE
Yb-V-O,mp-18797,[32689],Yb2V2O7,0,Fd-3m,y,y,1473,0,vacuum,{},{},1,,"YbVO3, YbVO4",,10.1021/cm960259+,1997,inhomogeneous,FALSE
Yb-V-O,mp-1199587,[262406],Yb2VO5,0,C2/c,n,n,,,,{},{},,,,hydrothermal,10.1021/ic2024132,2012,,FALSE
Yb-V-O,mp-18801,"[260088, 260089, 260087, 260084, 260086, 260083, 260085, 83484]",YbV4O8,0.011316888,P2_1/c,y,y,1473,0,vacuum,"{""step1"": {""grind method"": [""agate mortar""], ""wet/dry"": [], ""liquid"": []}}",{},1,,"YbVO3, YbVO4, V2O3",,10.1021/cm960259+,1997,alpha phase,FALSE
Yb-V-O,mp-1196657,"[418510, 418507, 418508, 418509, 418506, 418505, 418504]",YbV4O8,0.346849613,P2_1/c,y,y,,,,{},{},,,,,10.1021/cm960259+,1997,high temperature phase of mp-18801; beta phase,FALSE
Yb-V-O,mp-735715,[83485],YbV4O8,0,P2_1/c,y,?,,,,{},{},,,,,10.1107/S0108768108026153,2008,old refinement of mp-18801,FALSE
Yb-V-O,mp-703673,"[97783, 97784, 185840]",YbVO3,0,Pnma,y,y,1473,0,vacuum,"{""step1"": {""grind method"": [""agate mortar""], ""wet/dry"": [], ""liquid"": []}}","{""step1"": {""cool rate"": [], ""cool time"": [], ""cool medium"": [], ""cool type"": [""slow cooling""], ""end temperature"": [""RT""], ""remark"": []}}",1,,"Yb2O3, V2O3",,10.1016/0025-5408(74)90049-X,1973,,FALSE
Yb-V-O,mp-18799,"[9398, 78082, 15601]",YbVO4,0.001979522,I4_1/amd,y,y,1173,AP,,{},{},2,,"Yb2O3, V2O5",,10.1063/1.3223327,2009,,FALSE
Yb-W-O,mp-17646,[20956],Yb2WO6,0,P2/c,?,?,,,,{},{},,,,,"Kristallografiya 29, 904 (1984)",1984,translation issue: russian,FALSE
Zn-As-O,mp-781624,[261146],Zn2As2O7,0.01305915,C2/c,n,n,,,,{},{},,,"Zn, As2O5, PtCl2",chemical transport reaction,10.1107/S0108768110040802,2010,,FALSE
Zn-As-O,mp-1195771,[83639],Zn2As2O9,0.450006277,P2_1/c,?,?,,,,{},{},,,,,,,ICSD 83639 contain hydrogen,N/A
Zn-As-O,mp-1105646,"[8063, 37436, 34341]",Zn2AsO5,0.125614121,P-1,?,?,,,,{},{},,,,,,,"ICSD 8063, 37436, 34341 contain hydrogen",N/A
Zn-As-O,mp-1196946,"[12121, 34340, 26760]",Zn2AsO5,0.066883414,Pnnm,?,?,,,,{},{},,,,,,,"ICSD 12121, 34340, 26760 contain hydrogen",N/A
Zn-As-O,mp-1197431,"[28011, 34846, 20037]",Zn2AsO6,0.521255363,P2_1/c,?,?,,,,{},{},,,,,,,"ICSD 28011, 34846, 20037 contain hydrogen",N/A
Zn-As-O,mp-27580,[10400],Zn3As2O6,0,Pbam,n,n,,,,{},{},,,,natural mineral,pubs.geoscienceworld.org/msa/ammin/article/62/11-12/1129/40769,1977,alpha phase,FALSE
Zn-As-O,mp-1196784,"[417004, 248274]",Zn3As2O6,0.010938372,P2_1/c,n,n,,,,{},{},,,,,10.1107/S0108270110017403,2010,other phase of mp-27580; beta phase,FALSE
Zn-As-O,mp-15483,[404199],Zn3As2O8,0.005413682,P2_1/c,n,n,,,,{},{},,,,flux,10.1515/znb-1996-0306,1996,alpha phase,TRUE
Zn-As-O,mp-16834,[404229],Zn3As2O8,0,P2_1/c,n,n,,,,{},{},,,,,10.1515/znb-1996-0306,1996,other phase of mp-15483; beta phase,FALSE
Zn-As-O,mp-29437,[404035],Zn4As2O9,0.007630412,P2_1/c,n,n,,,,{},{},,,,flux,10.1515/znb-1996-0211,1996,,TRUE
Zn-As-O,mp-555797,[404034],Zn4As2O9,0.007787438,P2_1/c,n,n,,,,{},{},,,,laser,10.1515/znb-1996-0211,1996,other phase of mp-29437,TRUE
Zn-As-O,mp-1195850,"[54005, 54004, 59279]",Zn9As6O28,0.181543292,P-1,?,?,,,,{},{},,,,,,,"ICSD 54005, 54004, 59279 contain hydrogen",N/A
Zn-As-O,mp-29509,[202249],ZnAs2O4,0.00571257,P2_1/c,n,n,,,,{},{},,,,natural mineral,semanticscholar.org/paper/Leiteiteo-ZnAsrOnz-A-novel-type-of-tetrahedral-with-Gnosr-Gupra/2aaa1f4f2f72ba2e5e8d4ebdc25e377c36ad1838,1987,,FALSE
Zn-As-O,mp-1195966,[100581],ZnAsO5,0.387251147,P-1,?,?,,,,{},{},,,,,,,ICSD 100581 contain hydrogen,N/A