system,mp_id,icsd_ids,composition,e_above_hull,Spacegroup Number,solid_state_synthesized_composition,solid_state_synthesized_structure,sss_highest_temperature(K),sss_pressure(GPa),sss_atmosphere,sss_mixing_condition,sss_cooling_condition,sss_heating_step,single_crystal,sss_precursor,other_synthesis_method,reference,reference_year,comment,google_translate
V-Co-O,mp-19311,"[263001, 263002]",V2CoO6,0.008925882,C2/m,y,y,998,AP,,"{""step1"": {""grind method"": [""mortar""], ""wet/dry"": [], ""liquid"": []}}","{""step1"": {""cool rate"": [], ""cool time"": [], ""cool medium"": [], ""cool type"": [""quench""], ""end temperature"": [""RT""], ""remark"": []}}",2,,,,10.1016/j.jssc.2012.04.029,2012,"other phase of mp-572871, require quenching",FALSE
V-Co-O,mp-1194802,"[420769, 151415, 68029]",V2CoO8,0.237185737,Pnma,?,?,,,,{},{},,,,,,,"ICSD 420769, 151415, 68029 contain hydrogen",N/A
V-Cr-O,mp-1200219,[380465],V4Cr2O13,0,P2_1/c,y,y,903,AP,,{},"{""step1"": {""cool rate"": [], ""cool time"": [], ""cool medium"": [], ""cool type"": [""slow cooling""], ""end temperature"": [""RT""], ""remark"": []}}",1,,"V2O5, Cr2O3",,10.1016/j.jssc.2010.09.015,2010,,FALSE
V-Cr-O,mp-17831,[79865],VCrO4,0.037248982,C2/m,y,n,,,,{},{},,,"H3O4V, Cr(NO3)3",solution method,10.1039/JM9950500147,1995,"other phase of mp-19418, from abstract",FALSE
V-Cr-O,mp-19418,"[27508, 202755, 36244]",VCrO4,0.007719505,Cmcm,y,y,723,AP,,{},"{""step1"": {""cool rate"": [{""value"": ""10"", ""unit"": ""C/h""}], ""cool time"": [], ""cool medium"": [], ""cool type"": [], ""end temperature"": [""RT""], ""remark"": []}}",1,,"Cr2O3, V2O5",,10.1016/0025-5408(88)90168-7,1988,,FALSE
V-Cu-O,mp-27550,[2557],V2Cu5O10,0.032987899,P2_1/c,y,y,1013,AP,,"{""step1"": {""grind method"": [""agate mortar""], ""wet/dry"": [], ""liquid"": []}}",{},1,,"CuO, V2O5",,10.1016/0013-4686(95)00374-6,1996,,FALSE
V-Cu-O,mp-1194512,[65768],V2Cu3O9,0.081879417,P2_1/m,?,?,,,,{},{},,,,,,,ICSD 65768 contain hydrogen,N/A
V-Cu-O,mp-505508,"[40973, 34756, 1831]",V2Cu2O7,0.015344502,Fdd2,y,y,953,AP,,"{""step1"": {""grind method"": [""agate mortar""], ""wet/dry"": [], ""liquid"": [""anhydrous alcohol""]}}","{""step1"": {""cool rate"": [], ""cool time"": [], ""cool medium"": [], ""cool type"": [], ""end temperature"": [""RT""], ""remark"": []}}",1,,"CuO, V2O5",,10.1016/j.jeurceramsoc.2016.04.030,2016,alpha phase,FALSE
V-Cu-O,mp-687096,[171028],V2Cu2O7,0.026862665,P-1,y,y,,,,{},{},,,,,10.1016/j.jeurceramsoc.2016.04.031,2016,gamma phase; high temperature phase of mp-505508,FALSE
V-Cu-O,mp-542860,"[23479, 164189, 158375, 164190]",V2Cu2O7,0.001379684,C2/c,y,y,,,,{},{},,,,,10.1016/j.jeurceramsoc.2016.04.032,2016,beta phase; high temperature phase of mp-505508; ICSD 164189 not found,FALSE
V-Cu-O,mp-554748,[27310],V2Cu3O8,0.017775133,P2_1/c,y,y,,,,{},{},,,,,10.1007/BF02746035,1993,beta phase; high temperature phase of mp-504747,FALSE
V-Cu-O,mp-504747,[27184],V2Cu3O8,0.011632403,P-1,y,y,973,AP,,{},{},1,,"CuO, V2O5",,10.1088/0953-8984/15/6/317,2003,alpha phase,FALSE
V-Cu-O,mp-690658,[28151],V2CuO6,0.003903068,P-1,y,y,833,AP,,{},{},1,,"CuO, V2O5",,10.1134/S1063783417060075,2017,,FALSE
V-Cu-O,mp-540757,[21067],V2CuO6,0.010706511,C2/m,y,?,,,,{},{},,,,,10.1107/S0567740873005455,1973,old refinement of mp-690658,FALSE
V-Cu-O,mp-1192382,[65769],V2CuO8,0.254733911,P2/c,?,?,,,,{},{},,,,,,,ICSD 65769 contain hydrogen,N/A
V-Cu-O,mp-29507,[201626],V6Cu11O26,0.021117426,P-1,y,y,1013,AP,,"{""step1"": {""grind method"": [""agate mortar""], ""wet/dry"": [], ""liquid"": []}}","{""step1"": {""cool rate"": [{""value"": ""120"", ""unit"": ""C/h""}], ""cool time"": [], ""cool medium"": [], ""cool type"": [], ""end temperature"": [""RT""], ""remark"": []}}",1,,"CuO, V2O5",,10.1016/0167-2738(94)90220-8,1994,,FALSE
V-Cu-O,mp-510657,[418372],VCu3O4,0.091139369,I-42m,y,y,823,0,vacuum,{},"{""step1"": {""cool rate"": [], ""cool time"": [], ""cool medium"": [], ""cool type"": [], ""end temperature"": [""RT""], ""remark"": []}}",2,,"CuO, Cu, V2O5",,10.1016/j.solidstatesciences.2007.09.009,2008,,FALSE
V-Cu-O,mp-504580,[19046],VCuO3,0.069142407,R-3,y,y,1273,6.5,,{},{},1,,"Cu2O, V2O5; CuO, V2O4",,10.1016/0022-4596(70)90004-6,1970,CuVO3-II,FALSE
V-Cu-O,mp-562987,[9414],VCuO3,0.081270747,P1,y,?,,,,{},{},,,,,,,might be CuVO3-I; ICSD 9414 has different stoichiometry/formula,N/A
V-Cu-O,mp-1105167,"[195438, 195439]",VCuO3,0.127342509,Im-3,y,y,,,,{},{},,,,,10.1002/anie.201504784,2015,high pressure phase of mp-504580,FALSE
V-Fe-O,mp-20167,"[109149, 28962]",V2FeO4,0.042704159,Fd-3m,y,y,1500,,CO2/H2,{},{},2,,"Fe2O3, V2O5",,10.1016/0022-4596(71)90089-2,1971,,FALSE
V-Fe-O,mp-1196228,[90635],V3Fe2O12,0.190973425,P2_12_12_1,?,?,,,,{},{},,,,,,,ICSD 90635 contain hydrogen,N/A
V-Fe-O,mp-1200054,[83589],V4Fe2O13,0.003849917,P2_1/c,y,?,,,,{},{},,,,,10.1021/ic980942t,1998,old refinement of mp-558525,FALSE
V-Fe-O,mp-558525,[86681],V4Fe2O13,0,P2_1/c,y,y,873,AP,,{},"{""step1"": {""cool rate"": [], ""cool time"": [], ""cool medium"": [], ""cool type"": [""slow cooling""], ""end temperature"": [""RT""], ""remark"": []}}",4,,"Fe2O3, V2O5",,10.1007/BF01914228,1986,,FALSE
V-Fe-O,mp-18949,[82161],VFeO4,0.01715534,Cmcm,y,y,,,,{},{},,,,,10.1021/acs.inorgchem.8b00984,2018,high pressure phase of mp-504509,FALSE
V-Fe-O,mp-504509,[10329],VFeO4,0.414647298,P-1,y,y,1013,AP,,{},{},1,,"V2O5, Fe2O3",,10.1016/0022-4596(71)90016-8,1971,,FALSE
V-Hg-O,mp-29189,[82243],VHg2O4,0,P2_1/c,y,y,673,0,vacuum,{},"{""step1"": {""cool rate"": [], ""cool time"": [], ""cool medium"": [""air""], ""cool type"": [""quench""], ""end temperature"": [""RT""], ""remark"": []}}",1,,"amorphous HgV2O6, HgO",,10.1006/jssc.1996.0276,1996,inhomogeneous,FALSE
V-Hg-O,mp-540566,[2517],V2Hg2O7,0,Pnma,y,y,793,AP,,{},{},3,y,"HgO, V2O5",,10.1107/S056774087300292X,1973,alpha phase,TRUE
V-Hg-O,mp-17749,"[409521, 26996]",V2HgO6,0,Pbca,y,y,773,0,vacuum,{},"{""step1"": {""cool rate"": [], ""cool time"": [], ""cool medium"": [""air""], ""cool type"": [""quench""], ""end temperature"": [""RT""], ""remark"": []}}",1,,"HgO, V2O5",,10.1524/ncrs.2001.216.14.3,2001,beta phase,FALSE
V-Hg-O,mp-554760,[418029],V4HgO10,0.020867236,C2/m,n,n,,,,{},{},,,,precipitation,10.1515/znb-2007-1107,2007,,FALSE
V-Hg-O,mp-29188,[82242],VHgO3,0,P-1,y,y,673,0,vacuum,{},"{""step1"": {""cool rate"": [], ""cool time"": [], ""cool medium"": [""air""], ""cool type"": [""quench""], ""end temperature"": [""RT""], ""remark"": []}}",1,,"amorphous HgV2O6, HgO",,10.1006/jssc.1996.0276,1996,inhomogeneous,FALSE
V-In-O,mp-21274,"[417999, 1908, 418000]",VIn2O5,0.031456487,Pnma,y,y,1323,0,vacuum,{},"{""step1"": {""cool rate"": [{""value"": ""5"", ""unit"": ""C/h""}], ""cool time"": [], ""cool medium"": [], ""cool type"": [], ""end temperature"": [""RT""], ""remark"": []}}",1,,"VO2, In2O3",,10.1103/PhysRevB.76.134411,2007,,FALSE
V-In-O,mp-22443,"[10431, 155162, 237482]",VInO4,0,Cmcm,y,y,1173,AP,,{},{},3,,"In2O3, V2O5",,10.1021/ic402043x,2013,,FALSE
V-In-O,mp-505263,[80360],VInO4,0.019719701,C2/m,y,n,,,,{},{},,,InVO4·xH2O,decomposition,10.1006/jssc.1995.1315,1995,other phase of mp-22443,FALSE
V-Mo-O,mp-546989,[25378],V2MoO8,0.029581426,Cmm2,y,?,,,,{},{},,,,,,,might be other phase or refinement of mp-27877,N/A
V-Mo-O,mp-27877,[28471],V2MoO8,0.052221022,C2/m,y,y,903,0,vacuum,{},{},2,,"V2O5, MoO3",,10.3891/acta.chem.scand.20-1658,1966,,FALSE
V-Mo-O,mp-22006,[27315],VMoO5,0.014913547,P4/n,y,y,1153,0,vacuum,{},{},2,,"VO2, MoO3",,10.1016/0167-2738(92)90400-J,1992,,FALSE
V-Ni-O,mp-27157,[2358],V2Ni2O7,0.013331622,P2_1/c,y,y,923,AP,,{},"{""step1"": {""cool rate"": [], ""cool time"": [], ""cool medium"": [], ""cool type"": [""furnace cool""], ""end temperature"": [""RT""], ""remark"": []}}",2,,"NiO, V2O5",,10.1023/B:JTAN.0000033189.00914.72,2004,,FALSE
V-Ni-O,mp-542151,"[2646, 27287, 93344, 27286]",V2Ni3O8,0,Cmce,y,y,1173,AP,,{},{},2,,"NiO, V2O5",,10.1016/S0038-1098(02)00597-5,2002,,FALSE
V-Ni-O,mp-28162,[33881],V2NiO6,0.018664613,P-1,y,y,973,,,{},{},1,,,,10.1016/0022-4596(81)90261-9,1981,,FALSE
V-Ni-O,mp-1106392,[79729],V2NiO7,0.201876391,P-1,?,?,,,,{},{},,,,,,,ICSD 79729 contain hydrogen,N/A
V-Pb-O,mp-22005,"[21020, 2901]",V2Pb2O7,0,P2_1/c,y,y,1003,AP,,{},{},7,,"PbO, V2O5",,10.1134/S0012501616010012,2016,,FALSE
V-Pb-O,mp-20564,"[69799, 29360, 67603]",V2Pb3O8,0,P2_1/c,y,y,1213,AP,,{},{},12,,"PbO, V2O5",,10.1134/S0012501616010012,2016,,FALSE
V-Pb-O,mp-19903,"[67604, 69800, 67605, 29359]",V2Pb3O8,0.00335464,C2,y,y,,,,{},{},,,,,10.1016/0022-4596(91)90089-Z,1991,low temperature phase of mp-20564,FALSE
V-Pb-O,mp-21322,"[69798, 27651]",V2Pb3O8,0.032634956,R-3m,y,y,,,,{},{},,,,,10.1016/0022-4596(91)90089-Z,1991,high temperature phase of mp-20564,FALSE
V-Pb-O,mp-647385,[55331],V2Pb4O9,0,Pnma,y,y,1063,AP,,{},{},9,,"PbO, V2O5",,10.1134/S0012501616040023,2016,inhomogeneous,FALSE
V-Pb-O,mp-21126,[36464],V2PbO6,0,C2/m,n,n,,,,{},{},,,,,10.1107/S0108270185003225,1985,other phase of mp-607026,FALSE
V-Pb-O,mp-607026,[6109],V2PbO6,0.027149256,Pnma,n,n,,,,{},{},,,"PbO, V2O5",from melt,10.1139/v74-393,1974,,FALSE
V-Pb-O,mp-22296,"[94438, 94439]",V5Pb2O12,0.015475768,P2/c,y,y,1003,0,vacuum,{},{},1,,"Pb2V2O7, V2O3, VO2",,10.1002/1521-3749(200109)627:9<2143::AID-ZAAC2143>3.0.CO;2-R,2001,,FALSE
V-Pb-O,mp-619128,"[93597, 82275]",V6PbO11,0.048286908,P6_3mc,y,y,1213,0,vacuum,{},{},2,,"PbO, V2O3, V2O5",,10.1088/0953-8984/13/41/319,2001,excess PbO; another paper used solid state synthesis at high pressure to avoid impurities,FALSE
V-Pb-O,mp-22371,"[94269, 93596]",V6PbO11,0.069650601,P6_3/mmc,y,y,,,,{},{},,,,,10.1103/PhysRevB.64.174404,2001,high temperature phase of mp-619128,FALSE
V-Pb-O,mp-1070440,[187637],VPbO3,0.122352179,Pm-3m,y,y,,,,{},{},,,,,10.1088/0953-8984/24/43/435403,2012,high pressure phase of mp-20032,FALSE
V-Pb-O,mp-20032,"[240256, 152276, 187636, 187635, 152277, 152278]",VPbO3,0.019889879,P4mm,y,y,1223,6,,{},"{""step1"": {""cool rate"": [], ""cool time"": [], ""cool medium"": [], ""cool type"": [""quench""], ""end temperature"": [""RT""], ""remark"": []}}",1,,"PbO, V2O3, V2O5",,10.1021/cm048387i,2004,ICSD 187636 not found,FALSE
V-Re-O,mp-29931,[92317],VRe2O9,0,Cmc2_1,y,y,973,0,vacuum,{},"{""step1"": {""cool rate"": [{""value"": ""4"", ""unit"": ""C/h""}], ""cool time"": [], ""cool medium"": [], ""cool type"": [], ""end temperature"": [{""value"": ""400"", ""unit"": ""C""}], ""remark"": []}, ""step2"": {""cool rate"": [], ""cool time"": [], ""cool medium"": [], ""cool type"": [""furnace cool""], ""end temperature"": [""RT""], ""remark"": []}}",1,,"V2O5, ReO3",,10.1016/S1293-2558(00)01058-X,2000,,FALSE
V-Sb-O,mp-622171,[203130],VSb2O5,0.147616599,Pnma,y,n,,,,{},{},,,,natural mineral,pubs.geoscienceworld.org/canmin/article/27/4/625/12142/polytypism-in-stibivanite,1989,other phase of mp-19243,FALSE
V-Sb-O,mp-19243,"[27800, 2292]",VSb2O5,0.147105871,C2/c,y,y,923,0,vacuum,{},{},1,,"VO2, Sb2O3",,10.1016/0022-4596(76)90169-9,1976,,TRUE
V-Sb-O,mp-29146,[84567],VSbO4,0,I4_1md,y,y,1253,AP,,{},{},1,,"V2O5, Sb2O3",,10.1007/s10854-013-1161-y,2013,,FALSE
V-Se-O,mp-557295,[2354],VSe2O6,0,P4cc,y,y,673,,,{},{},1,,"VO2, SeO2",,10.1107/S0567740874008260,1974,,TRUE
V-Se-O,mp-972384,[167774],V2Se2O11,0,C2/c,n,n,,,,{},{},,,"V2O5, H2SeO4",solution method,10.1134/S0036023610040042,2010,,FALSE
V-Se-O,mp-1203305,[96425],V2Se2O13,0.667418371,C2/c,?,?,,,,{},{},,,,,,,ICSD 96425 contain hydrogen,N/A
V-Se-O,mp-541993,"[89466, 81867]",V2Se2O9,0.007313404,P2_1/c,y,y,623,,inert atmosphere,{},{},2,,"V2O5, SeO2",,10.1002/zaac.19764220210,1976,alpha phase,FALSE
V-Se-O,mp-1194518,[430539],V2Se2O9,0,P2_1/c,y,n,,,,{},{},,,"V2O5, SeO2, PbCl2",chemical vapor transport,10.1021/acs.cgd.5b01706,2016,beta phase; other phase of mp-541993,FALSE
V-Se-O,mp-29173,[85464],V2Se3O11,0,P2_1/c,y,y,673,0,vacuum,{},"{""step1"": {""cool rate"": [{""value"": ""6"", ""unit"": ""C/h""}], ""cool time"": [], ""cool medium"": [], ""cool type"": [], ""end temperature"": [{""value"": ""250"", ""unit"": ""C""}], ""remark"": []}, ""step2"": {""cool rate"": [], ""cool time"": [], ""cool medium"": [""air""], ""cool type"": [], ""end temperature"": [""RT""], ""remark"": []}}",1,,"SeO2, V2O5",,10.1021/ic9708881,1997,,FALSE
V-Se-O,mp-28619,[68333],VSeO4,0.004149701,P2_1/c,?,?,,,,{},{},,,,,"New Journal of Chemistry 11, 321 (1987)",1987,insufficient information: no synthesis information,FALSE
V-Te-O,mp-556295,[9255],V2Te2O9,0.012993905,Fdd2,y,y,743,AP,,"{""step1"": {""grind method"": [""ball milling""], ""wet/dry"": [], ""liquid"": [""acetone""]}}",{},3,,"V2O5, TeO2",,10.1016/j.optmat.2017.04.028,2017,,FALSE
V-Te-O,mp-30901,[97532],V2Te2O9,0,P2_1/c,y,n,,,,{},{},,,"CuCl2·2H2O, V2O5, Na2TeO3, H2O",hydrothermal,10.1016/S0022-4596(03)00381-5,2003,other phase of mp-556295,FALSE
V-Te-O,mp-30525,[9402],VTeO4,0.090737537,P2_1/c,y,y,,,,{},{},,,,,10.1016/0022-4596(72)90044-8,1972,beta phase; high temperature phase of mp-559505,FALSE
V-Te-O,mp-559505,[19021],VTeO4,0.006288828,P2_1/c,y,y,873,,,{},{},1,,"TeO2, VO2",,10.1016/0022-4596(72)90044-8,1972,alpha phase,FALSE
V-W-O,mp-20312,"[2576, 28489, 2575]",V2WO6,0,P4_2/mnm,y,y,1223,0,vacuum,{},{},1,,"WO3, V2O3",,10.1107/S0567740878011541,1978,,TRUE
V-Zn-O,mp-17458,[2886],V2Zn2O7,0,C2/c,y,y,873,AP,,{},{},3,,"V2O5, ZnO",,10.1023/A:1011524424682,2001,alpha phase,FALSE
V-Zn-O,mp-634381,[250002],V2Zn2O7,0.030848205,C2/m,y,y,,,,{},{},,,,,10.1023/A:1011524424682,2001,beta phase; high temperature phase of mp-17458,FALSE
V-Zn-O,mp-17545,[23776],V2Zn3O8,0.030568984,Cmce,y,y,1033,AP,,{},{},4,,"V2O5, ZnO",,10.1023/A:1011524424682,2001,,FALSE
V-Zn-O,mp-28331,[59109],V2Zn4O9,0.01930393,P2_1,y,y,1033,AP,,{},{},4,,"V2O5, ZnO",,10.1023/A:1011524424682,2001,,FALSE
V-Zn-O,mp-18879,"[55442, 55443, 99181, 76982, 28963]",V2ZnO4,0.072452512,Fd-3m,y,y,1173,0,vacuum,{},{},4,,"V2O3, ZnO",,10.1140/epjb/e2003-00282-4,2003,,FALSE
V-Zn-O,mp-1178789,[26998],V2ZnO6,0.02287634,C2,y,?,,,,{},{},,,,,10.1021/jp411283m,2014,old refinement of mp-540969,FALSE
V-Zn-O,mp-540969,[30880],V2ZnO6,0.019120121,C2/m,y,y,873,AP,,{},{},3,,"V2O5, ZnO",,10.1023/A:1011524424682,2001,,FALSE
V-Zn-O,mp-27284,[9268],V3ZnO8,0.007005985,Iba2,?,?,,,,{},{},,,,,"Crystal Structure Communications 2, 209 (1973)",1973,insufficient information: no synthesis information,FALSE
Y-Ag-O,mp-30250,[95674],YAgO2,0,P6_3/mmc,n,n,,,,{},{},,,,ion exchange,10.1016/S1293-2558(02)01363-8,2002,"modelling of delafossite YAgO2, which has been synthesized via ion exchange: 10.1088/1757-899X/18/9/092066",FALSE
Y-Al-O,mp-3050,"[41144, 67102, 31496, 23848, 41145, 93635, 16825, 20090, 170158, 236589, 93634, 67103, 74607, 170157, 280104]",Y3Al5O12,0,Ia-3d,y,y,2223,0.0001,Ar,"{""step1"": {""grind method"": [""ball milling""], ""wet/dry"": [], ""liquid"": [""water""]}}",{},1,,"Y2O3, Al2O3",,10.1016/j.jeurceramsoc.2005.12.008,2006,,FALSE
Y-Al-O,mp-5409,"[80041, 63650, 69531, 51076, 69530, 69529, 80040, 80039]",Y4Al2O9,0.011693304,P2_1/c,y,y,2223,0.0001,Ar,"{""step1"": {""grind method"": [""ball milling""], ""wet/dry"": [], ""liquid"": [""water""]}}",{},1,,"Y2O3, Al2O3",,10.1016/j.jeurceramsoc.2005.12.008,2006,,FALSE
Y-Al-O,mp-560927,"[195908, 51077]",Y4Al2O9,0.014636406,P2_1/c,y,?,,,,{},{},,,,,10.1007/s40145-015-0141-5,2015,other refinement of mp-560927,FALSE
Y-Al-O,mp-7964,[27100],YAlO3,0.102225434,P6_3/mmc,y,?,,,,{},{},,,,,10.1021/ic502027k,2014,might be Y3Al3O8CO3,FALSE
Y-Al-O,mp-3792,"[191383, 167509, 99424, 236590, 99425, 99423, 4115, 83028, 88261, 99420, 99419, 99422, 99421, 83029, 191100, 99426, 83027]",YAlO3,0.018835612,Pnma,y,y,2173,0.0001,Ar,"{""step1"": {""grind method"": [""ball milling""], ""wet/dry"": [], ""liquid"": [""water""]}}",{},1,,"Y2O3, Al2O3",,10.1016/j.jeurceramsoc.2005.12.008,2006,,FALSE
Y-As-O,mp-8058,[24513],YAsO4,0,I4_1/amd,?,?,,,,{},{},,,,,10.1103/PhysRevB.60.1668,1998,insufficient information,FALSE
Y-Au-O,mp-30251,[95675],YAuO2,0.002027443,P6_3/mmc,?,?,,,,{},{},,,,,10.1016/S1293-2558(02)01363-8,2002,modelling of delafossites YAuO2,FALSE
Y-Be-O,mp-5905,"[15141, 15362]",Y2BeO4,0.029544487,Pnma,n,n,,,,{},{},,,,from melt,10.1107/S0365110X67000702,1967,,FALSE
Y-Bi-O,mp-1070510,[261432],Y2BiO2,0,I4/mmm,y,y,1273,0,vacuum,{},{},3,,"Y, Y2O3, Bi",,10.1021/ja111015p,2011,,FALSE
Y-Co-O,mp-22668,"[155837, 155836, 155838, 155835]",YCoO3,0,Pnma,y,y,1173,,O2,{},{},2,,"Y2O3, Co(NO3)·6H2O",,10.1103/PhysRevB.73.214443,2006,inhomogeneous,FALSE
Y-Co-O,mp-1288734,"[155834, 155837, 155836, 155838, 155835]",YCoO3,0.014759838,P2_1/c,y,?,,,,{},{},,,,,10.1103/PhysRevB.73.214443,2006,same ICSD as mp-22668,FALSE
Y-Cr-O,mp-18725,"[192859, 109352, 185525, 236372, 251107]",YCrO3,0,Pnma,y,y,1173,AP,,{},{},1,,"Y2O3, Cr2O3",,10.1016/j.jpcs.2015.12.012,2016,,FALSE
Y-Cr-O,mp-18825,"[26989, 95971, 157933]",YCrO4,0,I4_1/amd,y,y,853,,"air,O2",{},{},1,,"Y(NO3)3·6H2O, Cr(NO3)3·9H2O",,10.1103/PhysRevB.75.104402,2007,,FALSE
Y-Cr-O,mp-555657,[157934],YCrO4,0.025591293,I4_1/a,y,y,,,,{},{},,,,,10.1103/PhysRevB.75.104402,2007,high temperature/pressure phase of mp-18825,FALSE
Y-Cu-O,mp-510475,"[171704, 51445, 171703]",Y2Cu2O5,0.040427337,Pnma,y,?,,,,{},{},,,,,10.1016/j.solidstatesciences.2005.12.003,2006,,FALSE
Y-Cu-O,mp-2882,"[67119, 202877, 72058, 79429, 189773, 63306]",Y2Cu2O5,0.049310048,Pna2_1,y,y,1223,AP,,{},{},1,,"Y2O3, CuO",,10.1006/jssc.1995.1141,1995,,FALSE
Y-Cu-O,mp-6972,[60848],YCuO2,0.001390677,R-3m,y,?,,,,{},{},,,,,10.1016/0022-4596(83)90117-2,1983,3R phase; minority phase; other phase of mp-2918,FALSE
Y-Cu-O,mp-2918,"[95673, 35580]",YCuO2,0.000321538,P6_3/mmc,y,y,1323,0,vacuum,{},"{""step1"": {""cool rate"": [], ""cool time"": [], ""cool medium"": [], ""cool type"": [""quench""], ""end temperature"": [""RT""], ""remark"": []}}",1,,"Y2O3, Cu2O",,10.1016/0022-4596(83)90117-2,1983,ICSD 95673 not found; 2H phase,FALSE
Y-Fe-O,mp-1299640,[67701],YFe2O4,0.013911492,P2/m,y,y,1473,,CO2/H2,{},"{""step1"": {""cool rate"": [], ""cool time"": [], ""cool medium"": [], ""cool type"": [""quench""], ""end temperature"": [""RT""], ""remark"": []}}",1,,"Y2O3, Fe2O3",,10.1016/0921-4526(92)90408-K,1992,,FALSE
Y-Fe-O,mp-4704,"[60167, 88502, 2012, 29222, 14342, 23855, 88506, 173997, 29235, 80139, 28561, 88504]",Y3Fe5O12,0.023537089,Ia-3d,y,y,1673,,O2,{},"{""step1"": {""cool rate"": [], ""cool time"": [], ""cool medium"": [], ""cool type"": [""quench""], ""end temperature"": [""RT""], ""remark"": []}}",1,,"Y2O3, Fe2O3",,10.1016/j.ssi.2012.07.003,2012,,FALSE
Y-Fe-O,mp-504492,[9640],Y6Fe16O,0.782391238,Im-3m,n,n,,,,{},{},,,,,10.1016/0022-5088(76)90259-9,1976,,FALSE
Y-Fe-O,mp-20783,"[43260, 188571, 80865, 80866]",YFeO3,0.011817914,Pnma,y,y,1523,AP,,"{""step1"": {""grind method"": [""mixed""], ""wet/dry"": [], ""liquid"": [""acetone""]}}","{""step1"": {""cool rate"": [{""value"": ""80"", ""unit"": ""C/h""}], ""cool time"": [], ""cool medium"": [], ""cool type"": [], ""end temperature"": [""RT""], ""remark"": []}}",2,,"Y2O3, Fe2O3",,10.1016/j.jallcom.2013.03.120,2013,,FALSE
Y-Ga-O,mp-5444,"[185862, 23852, 80148, 14343]",Y3Ga5O12,0,Ia-3d,y,y,1823,AP,,"{""step1"": {""grind method"": [""ball milling""], ""wet/dry"": [], ""liquid"": [""ethanol""]}}",{},2,,"Y2O3, Ga2O3",,10.1007/s40145-019-0321-9,2019,,FALSE
Y-Ga-O,mp-554722,[155086],Y3GaO6,0.004998804,Cmc2_1,y,y,1673,AP,,{},"{""step1"": {""cool rate"": [], ""cool time"": [], ""cool medium"": [""air""], ""cool type"": [""quench""], ""end temperature"": [""RT""], ""remark"": []}}",3,,"Y2O3, Ga2O3",,10.1016/j.jallcom.2006.01.036,2006,,FALSE
Y-Ga-O,mp-17853,[1999],YGaO3,0.026886956,P6_3cm,?,?,1623,,,{},{},,,,,10.1007/BF00659879,1983,"conflicting information: 1% Bi doped was synthesized via solid state synthesis, but other papers have reported failed solid state synthesis up to 1873 K (doi: 10.1021/ic502027k)",FALSE
Y-Ge-O,mp-13546,[240989],Y2Ge2O7,0,P4_32_12,y,y,1473,AP,,{},{},3,,"Y2O3, GeO2",,10.1134/S003602361803004X,2018,,FALSE
Y-Ge-O,mp-561441,[260425],Y2GeO5,0,C2/c,y,y,1673,AP,,"{""step1"": {""grind method"": [""agate mortar""], ""wet/dry"": [], ""liquid"": []}}",{},1,,"Y2O3, GeO2",,10.1016/S0025-5408(03)00086-2,2004,,FALSE