system,mp_id,icsd_ids,composition,e_above_hull,Spacegroup Number,solid_state_synthesized_composition,solid_state_synthesized_structure,sss_highest_temperature(K),sss_pressure(GPa),sss_atmosphere,sss_mixing_condition,sss_cooling_condition,sss_heating_step,single_crystal,sss_precursor,other_synthesis_method,reference,reference_year,comment,google_translate
Sc-Cr-O,mp-18961,"[85141, 185585]",ScCrO3,0.036840852,Pnma,y,y,1473,4.5,,{},"{""step1"": {""cool rate"": [], ""cool time"": [], ""cool medium"": [], ""cool type"": [""quench""], ""end temperature"": [""RT""], ""remark"": []}}",1,,"Sc2O3, Cr2O3",,10.1016/S0025-5408(97)00151-7,1997,,FALSE
Sc-Cu-O,mp-15336,[100090],Sc2Cu2O5,0.095090678,Pna2_1,y,y,1273,AP,,{},{},2,,"CuO, Sc2O3",,10.1088/1361-648X/ab0fb0,2019,,FALSE
Sc-Cu-O,mp-3642,"[60847, 95667, 151929]",ScCuO2,0,P6_3/mmc,y,?,,,,{},{},,,,,10.1016/j.solidstatesciences.2004.04.015,2004,minority phase,FALSE
Sc-Cu-O,mp-4636,"[55689, 151931, 65547]",ScCuO2,0.000783624,R-3m,y,y,1313,AP,,{},"{""step1"": {""cool rate"": [], ""cool time"": [], ""cool medium"": [], ""cool type"": [""quench""], ""end temperature"": [""RT""], ""remark"": []}}",1,,"Cu2O, Sc2O3",,10.1016/j.solidstatesciences.2004.04.015,2004,,FALSE
Sc-Ge-O,mp-27576,[4120],Sc2GeO5,0,C2/c,?,?,,,,{},{},,,,,"Kristallografiya 19, 1081 (1974)",1974,translation issue: russian,FALSE
Sc-Mn-O,mp-17619,[83277],Sc2Mn2O7,0,Fd-3m,y,y,1123,6,,{},"{""step1"": {""cool rate"": [], ""cool time"": [], ""cool medium"": [], ""cool type"": [""quench""], ""end temperature"": [""RT""], ""remark"": []}}",1,,"Sc2O3, MnO2",,10.1016/0038-1098(96)00295-5,1996,,FALSE
Sc-Mn-O,mp-18954,"[79483, 79253, 50694]",ScMnO3,0.007776864,P6_3cm,y,y,1373,,"air,O2","{""step1"": {""grind method"": [""agate mortar""], ""wet/dry"": [], ""liquid"": []}}",{},3,,"Sc2O3, MnO2",,10.1021/ic4016838,2013,,FALSE
Sc-Mn-O,mp-1105811,[251022],ScMnO3,0.049950924,P2_1/c,y,y,,,,{},{},,,,,10.1021/ic4016838,2013,high temperature/pressure phase of mp-18954,FALSE
Sc-Mo-O,mp-14118,"[391467, 20838]",Sc2Mo3O12,0,Pbcn,y,y,1373,AP,,{},{},2,,"Sc2O3, MoO3",,10.1088/0953-8984/17/27/004,2005,,FALSE
Sc-Nb-O,mp-553961,[109191],ScNbO4,0,P2/c,y,y,2023,AP,,"{""step1"": {""grind method"": [""ball milling""], ""wet/dry"": [], ""liquid"": []}}",{},2,,"Sc2O3, Nb2O5",,10.1021/ed057p588,1980,,FALSE
Sc-Re-O,mp-558610,[245796],ScRe2O6,0.006403797,P2_1/c,y,y,1623,5,,{},"{""step1"": {""cool rate"": [], ""cool time"": [], ""cool medium"": [], ""cool type"": [""furnace cool""], ""end temperature"": [""RT""], ""remark"": []}}",1,,"ReO3, Sc2O3",,10.1016/j.jssc.2007.11.021,2008,,FALSE
Sc-Re-O,mp-13191,[245004],Sc6ReO12,0.037315437,R-3,y,y,1323,0,vacuum,"{""step1"": {""grind method"": [""agate mortar""], ""wet/dry"": [], ""liquid"": [""acetone""]}}",{},1,,"Sc2O3, ReO3",,10.1016/j.jssc.2006.07.041,2006,,FALSE
Sc-Rh-O,mp-1196890,"[237348, 237353]",ScRhO3,0.023317058,P2_1/c,y,y,1500,6,,{},"{""step1"": {""cool rate"": [], ""cool time"": [], ""cool medium"": [], ""cool type"": [""quench""], ""end temperature"": [""RT""], ""remark"": []}}",1,,"Sc2O3, Rh2O3",,10.1021/ic401760m,2013,,FALSE
Sc-Se-O,mp-1193171,[1702],ScSe3O9,0.23895747,Cc,?,?,,,,{},{},,,,,,,ICSD 1702 contain hydrogen,N/A
Sc-Se-O,mp-31065,[98624],Sc2Se3O9,0,P6_3/m,n,n,,,,{},{},,,,flux,10.1002/zaac.200300105,2003,,FALSE
Sc-Se-O,mp-11673,[1729],Sc2Se3O12,0,P2_1/c,n,n,,,,{},{},,,"Sc2O3, H2O, LiOH·H2O, H2SeO4",,10.1107/S0567740878007049,1978,,FALSE
Sc-Se-O,mp-1194798,[238180],Sc2Se3O10,0,P2_1/c,n,n,,,,{},{},,,"Sc(NO3)3·xH2O, SeO2, H2O",hydrothermal,10.1021/ic501009c,2014,,FALSE
Sc-Se-O,mp-1201602,[391279],Sc2Se3O10,0.214602322,P2_12_12_1,n,?,,,,{},{},,,,,,,ICSD 391279 contain hydrogen,N/A
Sc-Ta-O,mp-558781,"[109192, 236604]",ScTaO4,0,P2/c,y,y,1673,,inert gas,"{""step1"": {""grind method"": [""agate mortar""], ""wet/dry"": [], ""liquid"": []}}",{},1,,"Sc2O3, Lu2O3",,10.1016/j.mseb.2013.08.003,2013,,FALSE
Sc-Te-O,mp-1195567,"[238182, 427343]",Sc2Te3O9,0.00114649,P2_1/c,y,y,1023,0,vacuum,{},"{""step1"": {""cool rate"": [{""value"": ""60"", ""unit"": ""C/h""}], ""cool time"": [], ""cool medium"": [], ""cool type"": [], ""end temperature"": [""RT""], ""remark"": []}}",1,,"Sc2O3, TeO2",,10.1021/ic501009c,2014,,FALSE
Sc-Te-O,mp-558571,[417712],Sc2Te5O13,0,P-1,n,n,,,,{},{},,,"TeO2, Sc2O3, CsCl",flux,10.1002/zaac.200700074,2007,,TRUE
Sc-Te-O,mp-557773,[417711],Sc2TeO6,0,P321,y,y,1223,AP,,{},{},2,,"Sc2O3, TeO2",,10.1007/s10973-012-2647-1,2013,,FALSE
Sc-V-O,mp-1201569,[169174],Sc2VO5,0.014872447,I-4,y,y,1373,0,vacuum,"{""step1"": {""grind method"": [""mixed""], ""wet/dry"": [], ""liquid"": [""acetone""]}}",{},1,,"Sc2O3, V2O3, V2O5",,http://hdl.handle.net/1993/32043,2017,inhomogeneous,FALSE
Sc-V-O,mp-19247,"[169173, 78073, 290863, 164837, 27947]",ScVO4,0,I4_1/amd,y,y,1373,AP,,{},{},2,,"V2O5, Sc2O3",,10.1103/PhysRevB.79.184104,2009,,FALSE
Sc-W-O,mp-5516,"[50941, 50942, 28467, 50940, 391468]",Sc2W3O12,0.007396917,Pbcn,y,y,1673,AP,,"{""step1"": {""grind method"": [""mortar""], ""wet/dry"": [], ""liquid"": []}}",{},3,,"Sm2O3, WO3",,10.1021/cm980157e,1998,,FALSE
Sm-Al-O,mp-7405,"[193839, 10334, 164919, 164920]",SmAlO3,0,Pnma,y,y,1673,AP,,"{""step1"": {""grind method"": [""mixed""], ""wet/dry"": [], ""liquid"": [""acetone""]}}","{""step1"": {""cool rate"": [{""value"": ""60"", ""unit"": ""C/h""}], ""cool time"": [], ""cool medium"": [], ""cool type"": [], ""end temperature"": [""RT""], ""remark"": []}}",2,,"Al2O3, Sm2O3",,10.1007/s00339-013-7766-4,2014,,FALSE
Sm-As-O,mp-4794,"[415666, 415763]",Sm2As4O9,0,P-1,n,n,,,,{},{},,,"As2O3, Sm2O3, NaCl",flux,10.1515/znb-2005-1201,2005,,FALSE
Sm-As-O,mp-12929,[415339],SmAsO4,0,I4_1/amd,n,n,,,,{},{},,,"As2O3, CsCl, Sm2O3, SmCl3",flux,10.1002/zaac.200500209,2005,,TRUE
Sm-As-O,mp-13530,[416479],SmAsO4,0.020288223,I4_1/a,n,?,,,,{},{},,,,,,,ICSD 416479 wrong doi,N/A
Sm-Au-O,mp-10560,[411502],Sm3AuO6,0,P-1,y,y,873,0.43,O2,{},{},1,,"Au2O3·xH2O, Sm2O3",,10.1002/1521-3749(200103)627:3<439::AID-ZAAC439>3.0.CO;2-R,2001,,TRUE
Sm-Au-O,mp-16160,[92488],Sm4Au2O9,0,Pbcn,y,y,833,0.415,O2,{},{},1,,"Au2O3·xH2O, Sm2O3",,onlinelibrary.wiley.com/doi/abs/10.1002/1521-3749(200010)626:10%3C2178::AID-ZAAC2178%3E3.0.CO;2-%23,2000,ICSD 92488 doi not working,TRUE
Sm-Bi-O,mp-1068843,[261433],Sm2BiO2,0,I4/mmm,y,y,1296,0,vacuum,{},{},2,,"Sm, Sm2O3, Bi",,10.1021/ja111015p,2011,,FALSE
Sm-Bi-O,mp-1077975,[423294],Sm4Bi2O,0.068862454,I4/mmm,?,?,,,,{},{},,,"SmBi, Bi2O3",,10.1002/zaac.201100331,2011,minority phase,FALSE
Sm-Co-O,mp-22549,[28924],SmCoO3,0.144013621,Pm-3m,y,?,,,,{},{},,,,,10.1021/ja01633a031,1954,might be old refinement of mp-20016,FALSE
Sm-Co-O,mp-20016,"[291093, 90969]",SmCoO3,0,Pnma,y,y,1573,AP,,"{""step1"": {""grind method"": [""ball milling""], ""wet/dry"": [], ""liquid"": [""ethanol""]}}","{""step1"": {""cool rate"": [], ""cool time"": [{""value"": ""12"", ""unit"": ""h""}], ""cool medium"": [], ""cool type"": [], ""end temperature"": [""RT""], ""remark"": []}}",1,,"Sm2O3, Co3O4",,10.15407/fm21.02.226,2014,,FALSE
Sm-Cr-O,mp-19257,[28934],SmCrO3,0.155125744,Pm-3m,y,?,,,,{},{},,,,,10.1021/ja01633a031,1954,might be old refinement of mp-1105788,FALSE
Sm-Cr-O,mp-1105788,"[251100, 237360, 251099]",SmCrO3,0.140708878,Pnma,y,y,1673,AP,,{},{},3,,"Sm2O3, Cr2O3",,10.1016/j.ceramint.2014.05.115,2014,,FALSE
Sm-Cr-O,mp-18956,"[26980, 93787, 90462]",SmCrO4,0,I4_1/amd,y,y,853,,O2,{},{},3,,"Sm(NO3)3·6H2O, Cr(NO3)3·9H2O",,10.1016/S0925-8388(00)01079-3,2000,,FALSE
Sm-Cu-O,mp-4210,"[261378, 72243, 71182, 95371, 261377]",Sm2CuO4,0.008422123,I4/mmm,y,y,1273,AP,,{},{},1,,"Sm2O3, CuO",,10.1016/j.jssc.2011.01.035,2011,,FALSE
Sm-Cu-O,mp-13695,[18105],SmCuO2,0.012619433,R-3m,y,y,1348,0,vacuum,{},{},1,,"Sm2O3, Cu2O",,10.1103/PhysRevB.57.7950,1997,inhomogeneous,FALSE
Sm-Fe-O,mp-14139,[23857],Sm3Fe5O12,0.019534198,Ia-3d,y,y,1673,AP,,"{""step1"": {""grind method"": [""agate mortar""], ""wet/dry"": [], ""liquid"": []}}",{},1,,"Sm2O3, Fe2O3",,10.1039/C7RA05803A,2017,,FALSE
Sm-Fe-O,mp-1105484,[421428],Sm3FeO6,0,Cmc2_1,n,n,,,,{},{},,,"KOH, Sm2O3, Fe2O3 Nb2O5, Sr(OH)2",from melt,10.1016/j.solidstatesciences.2010.03.010,2010,,FALSE
Sm-Fe-O,mp-20243,"[252078, 291099, 252077, 252076, 161780, 189727, 82424, 93606, 27276]",SmFeO3,0,Pnma,y,y,1573,AP,,"{""step1"": {""grind method"": [""ball milling""], ""wet/dry"": [], ""liquid"": [""ethanol""]}}","{""step1"": {""cool rate"": [], ""cool time"": [{""value"": ""12"", ""unit"": ""h""}], ""cool medium"": [], ""cool type"": [], ""end temperature"": [""RT""], ""remark"": []}}",1,,"Sm2O3, Fe2O3",,10.15407/fm21.02.226,2014,,FALSE
Sm-Ga-O,mp-5800,"[291192, 9236, 84873]",Sm3Ga5O12,0,Ia-3d,y,y,1773,AP,,"{""step1"": {""grind method"": [""ball milling""], ""wet/dry"": [], ""liquid"": []}}",{},2,,"Sm2O3, Ga2O3",,10.1016/j.jeurceramsoc.2006.11.066,2007,,FALSE
Sm-Ga-O,mp-31110,"[420730, 99491]",Sm3GaO6,0,Cmc2_1,y,y,1673,AP,,{},{},3,,"Ga2O3, Sm2O3",,10.1016/j.jssc.2003.12.024,2004,,FALSE
Sm-Ge-O,mp-1179445,[65814],Sm3GeO8,0.162682168,P2_1/m,?,?,,,,{},{},,,,,,,ICSD 65814 contain hydrogen,N/A
Sm-Hf-O,mp-35249,[236211],Sm2Hf2O7,0,Fd-3m,y,y,,,,{},{},,,,,10.1016/j.solidstatesciences.2012.08.003,2012,"modelling of pyrochlore Sm2Hf2O7, which can be synthesized via solid state synthesis: 10.1016/j.ceramint.2018.09.002",FALSE
Sm-Ir-O,mp-15326,[86475],Sm3IrO7,0,Cmcm,y,y,1373,AP,,{},{},1,,"IrO2, Sm2O3",,10.1016/0025-5408(91)90139-D,1991,,FALSE
Sm-Mn-O,mp-19358,"[84671, 97044]",SmMn2O5,0.004794557,Pbam,y,y,1636,AP,,{},{},1,,"Sm2O3, Mn2O3",,10.1134/S0036024407010244,2006,,FALSE
Sm-Mn-O,mp-22203,"[183040, 95491, 183039, 157391, 169488]",SmMnO3,0,Pnma,y,y,1673,AP,,{},{},2,,"Sm2O3, MnO2",,10.1103/PhysRevB.83.174426,2011,,FALSE
Sm-Mo-O,mp-28454,[59270],SmMo8O14,0.268903343,Aea2,y,y,1673,,Ar,{},{},1,,"Sm2O3, Mo, MoO3",,10.1016/j.jallcom.2009.09.136,2010,,FALSE
Sm-Mo-O,mp-560690,"[187628, 419373, 187626, 187627]",Sm2Mo3O12,0,C2/c,y,y,1023,AP,,{},{},2,,"Sm2O3, MoO3",,10.1021/cm503720s,2014,alpha phase,FALSE
Sm-Mo-O,mp-554770,"[291028, 108769]",Sm2Mo2O7,0.169582291,Fd-3m,y,y,1673,,CO/CO2,{},{},1,,"Sm2O3, MoO2",,10.1016/0022-4596(87)90316-1,1987,,FALSE
Sm-Mo-O,mp-16679,[413029],Sm2Mo4O15,0,P-1,y,y,973,AP,,{},{},2,,"Sm2O3, MoO3",,10.1016/j.saa.2016.11.024,2017,,FALSE
Sm-Mo-O,mp-17591,[4186],Sm2MoO6,0,C2/c,?,?,,,,{},{},,,,,"Kristallografiya 20, 571 (1975)",2009,cannot find a copy of the mentioned paper which claimed to have synthesized the material via solid state synthesis; original paper is in russian,FALSE
Sm-Mo-O,mp-16386,[281030],Sm4Mo4O11,0.097646207,Pbam,y,y,1673,,Ar,{},"{""step1"": {""cool rate"": [{""value"": ""100"", ""unit"": ""C/h""}], ""cool time"": [], ""cool medium"": [], ""cool type"": [], ""end temperature"": [{""value"": ""1100"", ""unit"": ""C""}], ""remark"": []}, ""step2"": {""cool rate"": [], ""cool time"": [], ""cool medium"": [], ""cool type"": [""furnace cool""], ""end temperature"": [""RT""], ""remark"": []}}",1,,"MoO3, Mo, Sm2O3",,10.1021/ic011000i,2002,,FALSE
Sm-Mo-O,mp-16673,[281372],SmMo5O8,0.23571306,P2_1/c,y,y,1873,0.00005,Ar,{},{},1,,"Mo, MoO3, Sm2O3",,10.1016/0025-5408(93)90169-E,1993,,FALSE
Sm-Nb-O,mp-14152,[20407],SmNbO4,0,C2/c,y,y,1573,AP,,"{""step1"": {""grind method"": [""wet mixing"", ""dry mixing""], ""wet/dry"": [""dry"", ""wet"", ""dry"", ""wet""], ""liquid"": []}}",{},1,,"Sm2O3, Nb2O5",,10.1039/C5CP00569H,2015,,FALSE
Sm-Ni-O,mp-22495,"[96037, 96032, 56610, 56609, 97645, 97651, 97649, 97644, 97640, 97643, 90959, 96034, 97647, 97653, 88038, 96033, 96035, 69789, 97650, 97652, 97646, 97655, 96036, 97642, 97648, 97654, 97641]",SmNiO3,0,Pnma,y,y,1273,0.02,O2,{},"{""step1"": {""cool rate"": [{""value"": ""300"", ""unit"": ""C/h""}], ""cool time"": [], ""cool medium"": [], ""cool type"": [], ""end temperature"": [""RT""], ""remark"": []}}",1,,,,10.1021/ja984015x,1999,,FALSE
Sm-Os-O,mp-555639,[170876],Sm3OsO7,0.007022816,Pna2_1,y,y,,,,{},{},,,"Os, Sm2O3, NaOH, H2O",,10.1021/ic0506106,2005,low temperature phase of mp-5447,FALSE
Sm-Os-O,mp-5447,"[59756, 170873]",Sm3OsO7,0,Cmcm,y,y,1023,,,{},{},2,,"Os, Sm2O3",,10.1016/S0022-4596(02)00057-9,2002,Ag2O as oxygen donor in another crucible,FALSE
Sm-Re-O,mp-17741,[84854],Sm2ReO5,0,P4/n,y,y,1673,,Ar,{},{},1,,"ReO2, Sm2O3",,10.1006/jssc.1997.7459,1997,,FALSE
Sm-Re-O,mp-541928,[88688],Sm3Re2O9,0.011996414,P-1,y,y,1473,0,vacuum,{},"{""step1"": {""cool rate"": [], ""cool time"": [], ""cool medium"": [""air""], ""cool type"": [""quench""], ""end temperature"": [""RT""], ""remark"": []}}",1,,"Sm(ReO4)3, Sm",,10.1006/jssc.1999.8237,1999,,FALSE
Sm-Re-O,mp-15281,[82238],Sm3ReO7,0.05933694,Cmcm,y,y,1673,,Ar,"{""step1"": {""grind method"": [""agate mortar""], ""wet/dry"": [], ""liquid"": [""acetone""]}}",{},1,,"ReO2, Sm2O3",,10.1006/jssc.1996.0256,1996,,FALSE
Sm-Re-O,mp-7423,[639],Sm3ReO8,0,P2_1/c,n,n,,,,{},{},1,,"Re2O7, Sm2O3",solid-gas reaction,10.1107/S0567740876009515,1976,,TRUE
Sm-Rh-O,mp-3317,"[172350, 172356]",SmRhO3,0,Pnma,y,y,1573,,O2,{},{},2,,"Sm2O3, Rh2O3",,10.1007/s10853-014-8014-9,2014,,FALSE
Sm-Ru-O,mp-17113,[78142],Sm2Ru2O7,0.008066588,Fd-3m,y,y,1473,0,vacuum,{},{},2,,"RuO2, Sm2O3",,10.1006/jssc.1994.1116,1994,,FALSE
Sm-Ru-O,mp-5779,"[170273, 93667]",Sm3RuO7,0,Cmcm,y,y,1473,AP,,"{""step1"": {""grind method"": [""agate mortar""], ""wet/dry"": [], ""liquid"": []}}",{},1,,"Sm2O3, RuO2",,10.1006/jssc.2001.9099,2001,,FALSE
Sm-Ru-O,mp-555525,[170274],Sm3RuO7,0.012043258,Pna2_1,y,y,,,,{},{},,,,,10.1021/ic049700l,2004,low temperature phase of mp-5779,FALSE
Sm-Sb-O,mp-3154,"[67022, 67356]",Sm3Sb5O12,0,I-43m,y,y,963,0,vacuum,{},"{""step1"": {""cool rate"": [], ""cool time"": [], ""cool medium"": [], ""cool type"": [""quench""], ""end temperature"": [""RT""], ""remark"": []}}",1,,"Sm2O3, Sb2O3",,10.1016/0022-5088(89)90470-0,1989,,FALSE
Sm-Sb-O,mp-983597,[380455],Sm3SbO3,0.026454748,C2/m,y,y,1873,0,vacuum,{},"{""step1"": {""cool rate"": [], ""cool time"": [], ""cool medium"": [], ""cool type"": [""furnace cool""], ""end temperature"": [""RT""], ""remark"": []}}",1,,"SmSb, Sm2O3",,10.1021/ja1027698,2010,,FALSE
Sm-Sb-O,mp-1191597,[246733],Sm3SbO7,0.000177577,C222_1,y,?,,,,{},{},,,,,10.1016/j.jssc.2013.05.001,2013,other refinement of mp-1191139,FALSE
Sm-Sb-O,mp-1191139,[188504],Sm3SbO7,0,Cmcm,y,y,1773,AP,,"{""step1"": {""grind method"": [""pestle and mortar""], ""wet/dry"": [], ""liquid"": []}}",{},1,,"Sb2O5, Sm2O3",,10.1016/j.jssc.2013.05.001,2013,,FALSE
Sm-Sb-O,mp-561233,[241207],Sm9Sb5O5,0,P4/n,y,y,1920,,Ar,"{""step1"": {""grind method"": [""agate mortar""], ""wet/dry"": [], ""liquid"": []}}","{""step1"": {""cool rate"": [{""value"": ""50"", ""unit"": ""C/h""}], ""cool time"": [], ""cool medium"": [], ""cool type"": [], ""end temperature"": [""RT""], ""remark"": []}}",2,,"SmSb, Sm, Sm2O3",,10.1107/S0108768107051282,2007,,FALSE
Sm-Sb-O,mp-13196,[245049],SmSbO4,0,P2_1/c,y,y,,,,{},{},,,"Sm2O3, Sb2O5",,10.1021/cm502504b,2014,,FALSE
Sm-Sc-O,mp-31118,[99541],SmScO3,0,Pnma,y,y,1748,AP,,"{""step1"": {""grind method"": [""agate mortar""], ""wet/dry"": [], ""liquid"": [""acetone""]}}",{},2,,,,10.1016/j.jssc.2004.02.025,2004,,FALSE
Sm-Se-O,mp-559755,[416156],Sm2Se3O9,0,P-1,y,y,1073,,,{},{},2,,"Sm2O3, SeO2",,10.1515/znb-2001-0909,2001,,TRUE
Sm-Se-O,mp-573109,[416984],Sm2Se5O13,0,P2_1/c,y,y,623,,,{},{},2,,"Sm2O3, SeO2",,10.1002/zaac.200600172,2006,,FALSE
Sm-Se-O,mp-13972,[25807],Sm2SeO2,0,P-3m1,n,n,,,,{},{},,,"H2Se, Sm2O3",solid-gas reaction,10.1107/S0365110X60000339,1960,,FALSE
Sm-Se-O,mp-550117,[419130],Sm4Se3O4,0,Amm2,y,y,1023,0,vacuum,{},"{""step1"": {""cool rate"": [{""value"": ""5"", ""unit"": ""C/h""}], ""cool time"": [], ""cool medium"": [], ""cool type"": [], ""end temperature"": [""RT""], ""remark"": []}}",1,,"SeO2, Se, Sm",,10.1021/ic800233c,2008,inhomogeneous,FALSE
Sm-Sn-O,mp-2883,"[24194, 84755]",Sm2Sn2O7,0,Fd-3m,y,y,1773,AP,,{},{},2,,"SnO2, Sm2O3",,10.1006/jssc.1997.7277,1997,,FALSE
Sm-Ta-O,mp-1192238,[174070],Sm3TaO7,0.002895478,Cmcm,y,y,1773,AP,,{},"{""step1"": {""cool rate"": [], ""cool time"": [], ""cool medium"": [], ""cool type"": [""furnace cool""], ""end temperature"": [""RT""], ""remark"": []}}",1,,"Sm2O3, Ta2O5",,10.1016/j.jssc.2009.06.028,2009,,FALSE
Sm-Ta-O,mp-3756,"[109184, 153360]",SmTaO4,0.004811662,C2/c,y,y,,,,{},{},,,,,10.1134/S0036023618120215,2018,M-type; other phase of mp-12931,FALSE
Sm-Ta-O,mp-12931,[415431],SmTaO4,0,P2/c,y,y,1523,AP,,"{""step1"": {""grind method"": [""ball milling""], ""wet/dry"": [], ""liquid"": []}, ""step2"": {""grind method"": [""milling""], ""wet/dry"": [], ""liquid"": [""Freon-TF solvent""]}}",{},2,,,,10.1149/1.2119609,1983,M'-type,FALSE
Sm-Tc-O,mp-558131,[109079],Sm2Tc2O7,0.084652165,Fd-3m,y,y,1503,0,vacuum,{},"{""step1"": {""cool rate"": [], ""cool time"": [], ""cool medium"": [""water""], ""cool type"": [""quench""], ""end temperature"": [""RT""], ""remark"": []}}",2,,"Sm2O3, TcO2",,10.1016/0022-1902(64)80152-4,1964,,FALSE
Sm-Te-O,mp-3073,"[409823, 413653]",Sm2Te4O11,0,C2/c,y,y,1073,AP,,{},{},2,,"Sm2O3, TeO2",,10.1016/0022-5088(90)90019-G,1990,,FALSE
Sm-Te-O,mp-16033,[89561],Sm2TeO2,0,I4/mmm,y,y,950,,H2,{},{},1,,"Sm2O3, Te",,10.1016/j.materresbull.2007.03.008,2008,,FALSE
Sm-Ti-O,mp-3335,"[150209, 191621, 164025, 24208]",Sm2Ti2O7,0.010244422,Fd-3m,y,y,1773,AP,,"{""step1"": {""grind method"": [""mixed""], ""wet/dry"": [], ""liquid"": [""ethanol""]}}","{""step1"": {""cool rate"": [], ""cool time"": [], ""cool medium"": [""air""], ""cool type"": [""quench""], ""end temperature"": [""RT""], ""remark"": []}}",1,,"Sm2O3, TiO2",,10.1006/jssc.2000.8712,2000,,FALSE
Sm-Ti-O,mp-770806,"[195210, 191142]",Sm2TiO5,0,Pnma,y,y,1673,AP,,"{""step1"": {""grind method"": [""agate mortar""], ""wet/dry"": [], ""liquid"": []}}","{""step1"": {""cool rate"": [], ""cool time"": [], ""cool medium"": [""air""], ""cool type"": [""quench""], ""end temperature"": [""RT""], ""remark"": []}}",1,,"Sm2O3, TiO2",,10.1016/j.jallcom.2020.158429,2021,,FALSE
Sm-Ti-O,mp-22416,"[51181, 8148, 51180]",SmTiO3,0.060120422,Pnma,y,y,1673,0,vacuum,{},{},1,,"Sm2O3, TiO2",,10.1006/jssc.1998.7989,1998,,FALSE
Sm-V-O,mp-20702,[28929],SmVO3,0.426605981,Pm-3m,y,?,,,,{},{},,,,,10.1021/ja01633a031,1954,might be old refinement of mp-1188225,FALSE
Sm-V-O,mp-1188225,"[187199, 187198, 187200]",SmVO3,0.038916038,Pnma,y,y,1473,0,vacuum,"{""step1"": {""grind method"": [""agate mortar""], ""wet/dry"": [], ""liquid"": []}}","{""step1"": {""cool rate"": [], ""cool time"": [], ""cool medium"": [], ""cool type"": [""slow cooling""], ""end temperature"": [""RT""], ""remark"": []}}",1,,"Sm2O3, V2O3",,10.1016/0025-5408(74)90049-X,1974,,FALSE
Sm-V-O,mp-1095337,"[252450, 250875]",SmVO4,0.037598137,I4_1/a,y,y,,,,{},{},,,,,10.1021/ic400376g,2013,high pressure phase of mp-19323,FALSE
Sm-V-O,mp-19323,"[252449, 15609, 152691, 81701]",SmVO4,0,I4_1/amd,y,y,1173,AP,,{},{},2,,"Sm2O3, V2O5",,10.1063/1.3530518,2010,,FALSE
Sm-Zr-O,mp-4408,"[150208, 261415, 154753, 249976]",Sm2Zr2O7,0,Fd-3m,y,y,1773,AP,,"{""step1"": {""grind method"": [""mixed""], ""wet/dry"": [], ""liquid"": [""ethanol""]}}","{""step1"": {""cool rate"": [], ""cool time"": [], ""cool medium"": [""air""], ""cool type"": [""quench""], ""end temperature"": [""RT""], ""remark"": []}}",1,,"Sm2O3, ZrO2",,10.1006/jssc.2000.8712,2000,,FALSE
Sn-As-O,mp-1179370,[108988],SnAsO4,0.240966813,P2_1/c,?,?,,,,{},{},,,,,,,ICSD 108988 contain hydrogen,N/A
Sn-Bi-O,mp-23372,"[86845, 84793, 50311]",Sn2Bi2O7,0.011598118,Fd-3m,y,y,1273,AP,,{},{},1,,"SnO2, Bi2O3",,10.1006/jssc.1997.7387,1997,,FALSE
Sn-Bi-O,mp-1198288,[262198],Sn2Bi2O7,0,P3_1,y,y,,,,{},{},,,,,10.1021/ic200841v,2011,beta phase; high temperature phase of mp-23372; high pressure phase of mp-23372,FALSE
Sn-Hg-O,mp-13554,[260029],SnHgO3,0.06497132,R-3c,y,y,1373,7,,{},"{""step1"": {""cool rate"": [], ""cool time"": [], ""cool medium"": [], ""cool type"": [""quench""], ""end temperature"": [""RT""], ""remark"": []}}",1,,"HgO, SnO2",,10.1021/ic800370r,2008,,FALSE
Sn-Mo-O,mp-505802,[92839],SnMo4O6,0.21877717,P4/mbm,n,n,,,,{},{},,,"MoO2, MoO3, Sn",flux,10.1021/cm000646q,2001,,FALSE