system,mp_id,icsd_ids,composition,e_above_hull,Spacegroup Number,solid_state_synthesized_composition,solid_state_synthesized_structure,sss_highest_temperature(K),sss_pressure(GPa),sss_atmosphere,sss_mixing_condition,sss_cooling_condition,sss_heating_step,single_crystal,sss_precursor,other_synthesis_method,reference,reference_year,comment,google_translate
K-Ni-O,mp-505153,"[73216, 262577, 262576, 262578]",K3NiO2,0.06775998,P4_12_12,y,y,873,,Ar,"{""step1"": {""grind method"": [""agate mortar""], ""wet/dry"": [], ""liquid"": []}}",{},1,,"KN3, KNO3, NiO",,10.1002/zaac.201100511,2012,,FALSE
K-Ni-O,mp-13749,[14162],K9Ni2O7,0,P2_13,y,y,703,AP,,{},{},1,,"KO0.48, NiO",,10.1002/zaac.201000443,2011,,TRUE
K-Os-O,mp-4788,"[172619, 160698, 155495, 172620, 162266, 172618, 246505]",KOs2O6,0.010785971,Fd-3m,y,y,733,,O2,{},{},1,,"KOsO4, Os, Ag2O2",,10.1016/j.ssc.2008.10.029,2009,ICSD 246505 not found; Ag2O2 as oxygen source; inhomogeneous,FALSE
K-Os-O,mp-554461,[419880],KOs2O6,0,P-1,y,y,1173,3,,{},"{""step1"": {""cool rate"": [], ""cool time"": [{""value"": ""2"", ""unit"": ""hour""}], ""cool medium"": [], ""cool type"": [], ""end temperature"": [{""value"": ""500"", ""unit"": ""C""}], ""remark"": []}, ""step2"": {""cool rate"": [], ""cool time"": [{""value"": ""1"", ""unit"": ""hour""}], ""cool medium"": [], ""cool type"": [], ""end temperature"": [""RT""], ""remark"": []}}",2,,"KO2, OsO2, AgO",,10.1016/j.jssc.2008.11.003,2009,AgO as oxygen source; high temperature/pressure phase of mp-4788,FALSE
K-Os-O,mp-1080446,[20438],K2OsO6,0.30618653,I4/m,?,?,,,,{},{},,,,,,,ICSD 20438 contain hydrogen,N/A
K-Pb-O,mp-20694,[1412],K2Pb2O3,0,I2_13,y,y,673,,,{},{},1,,"KO0.46, PbO",,10.1002/zaac.19774370114,1977,,TRUE
K-Pb-O,mp-556517,[2266],K2PbO2,0,P-1,?,?,723,,,{},{},1,,"KO0.42, PbO",,10.1002/zaac.19784400109,1978,translation issue: might be solid state reaction or from melt,TRUE
K-Pb-O,mp-22756,[22063],K2PbO3,0.004645612,Cmc2_1,y,?,,,,{},{},,,,,10.1002/zaac.19875510817,1987,old refinement of mp-504935,FALSE
K-Pb-O,mp-504935,[62138],K2PbO3,0.004079836,Pnma,y,y,723,,O2,{},{},1,,"KPb, KOx",,10.1007/BF00635391,1963,alpha phase,TRUE
K-Pb-O,mp-561277,[15929],K2PbO3,0,P6_3/mcm,y,y,,,,{},{},,,,,10.1016/0022-4596(76)90154-7,1976,"beta phase, high pressure phase of mp-504935",FALSE
K-Pb-O,mp-21949,"[74874, 1564]",K4PbO3,0,Pbca,y,y,723,,,{},"{""step1"": {""cool rate"": [{""value"": ""50"", ""unit"": ""C/day""}], ""cool time"": [], ""cool medium"": [], ""cool type"": [], ""end temperature"": [""RT""], ""remark"": []}}",1,,"K2O2, KPb",,10.1002/zaac.19946200910,1994,,TRUE
K-Pb-O,mp-22328,[37268],K4PbO4,0,P-1,n,n,,,,{},{},,,K4PbO3,oxidation,10.1002/zaac.19835051011,1983,from abstract,FALSE
K-Pb-O,mp-505187,[74873],K6Pb2O5,0,P-1,y,y,923,,,{},"{""step1"": {""cool rate"": [{""value"": ""30"", ""unit"": ""C/day""}], ""cool time"": [], ""cool medium"": [], ""cool type"": [], ""end temperature"": [""RT""], ""remark"": []}}",1,y,"LiPb, K2O2",,10.1002/zaac.19946200910,1994,,FALSE
K-Pb-O,mp-28574,[65501],KPbO2,0,P-1,y,y,833,,,{},"{""step1"": {""cool rate"": [{""value"": ""15"", ""unit"": ""C/h""}], ""cool time"": [], ""cool medium"": [], ""cool type"": [], ""end temperature"": [""RT""], ""remark"": []}}",1,,"K2O2, PbO",,10.1002/zaac.19875490610,1987,,FALSE
K-Pd-O,mp-540584,[6158],K2PdO2,0,Immm,y,y,873,,Ar,{},{},1,,"K2O, PdO",,10.1515/znb-1974-1-206,1974,,TRUE
K-Pd-O,mp-1104224,[41431],K2PdO4,0.236465007,P2_1/c,?,?,,,,{},{},,,,,,,ICSD 41431 contain hydrogen,N/A
K-Pd-O,mp-1104831,[68236],K2PdO4,0.192589896,P1,?,?,,,,{},{},,,,,,,ICSD 68236 contain hydrogen,N/A
K-Pd-O,mp-560563,[245610],K3Pd2O4,0,Cmcm,y,y,923,,O2,{},{},2,,"KO2, PdO",,10.1016/j.jssc.2007.03.005,2007,excess KO2,FALSE
K-Pd-O,mp-1095520,[248051],KPd2O3,0,R-3m,y,y,923,,O2,{},{},2,,"KO2, PdO",,10.1021/ic902187a,2010,excess KO2,FALSE
K-Pr-O,mp-4519,"[40266, 15157]",KPrO2,0,R-3m,y,y,1173,,,{},"{""step1"": {""cool rate"": [], ""cool time"": [], ""cool medium"": [""water""], ""cool type"": [""quench""], ""end temperature"": [""RT""], ""remark"": []}}",1,,"PrO2, K2O",,10.1016/0025-5408(70)90003-6,1970,,TRUE
K-Pt-O,mp-1079194,"[27186, 27148]",K2PtO6,0.274254311,R-3,?,?,,,,{},{},,,,,,,"ICSD 27186, 27148 contain hydrogen",N/A
K-Pt-O,mp-27566,[14158],K3Pt2O4,0,Cmcm,y,y,1273,,,{},{},4,,"KOx, Pt",,10.1002/zaac.19804620111,1980,,TRUE
K-Re-O,mp-4757,"[62, 72502, 1921, 72503, 72501, 25832]",KReO4,0,I4_1/a,y,y,778,,"O2,air","{""step1"": {""grind method"": [""agate mortar""], ""wet/dry"": [], ""liquid"": []}}",{},2,,"Re, K2CO3",,10.1007/s10971-009-1977-3,2008,,FALSE
K-Ru-O,mp-5628,"[61378, 1562]",KRu4O8,0,I4/m,y,y,1273,,N2,{},{},1,,"K2CO3, RuNbO3",,10.1016/j.materresbull.2004.05.019,2004,excess K2CO3,FALSE
K-Ru-O,mp-17789,[415749],K2RuO4,0,Pnma,y,y,898,,O2,{},"{""step1"": {""cool rate"": [{""value"": ""20"", ""unit"": ""C/h""}], ""cool time"": [], ""cool medium"": [], ""cool type"": [], ""end temperature"": [""RT""], ""remark"": []}}",1,,"KO2, RuO2",,10.1515/znb-2005-1101,2005,,FALSE
K-Ru-O,mp-1201514,[65405],K2RuO5,0,P2_12_12_1,?,?,,,,{},{},,,,,,,ICSD 65405 contain hydrogen,N/A
K-Ru-O,mp-14005,[26612],KRuO4,0,I4_1/a,n,n,,,,{},{},,,,wet synthesis,10.1021/acs.inorgchem.9b03118,2020,,FALSE
K-Sb-O,mp-27140,[2061],K2Sb4O11,0,C2/m,n,n,,,,{},{},,,"K2CO3, SbCl3",precursor method,10.1107/S0567740874004079,1974,,FALSE
K-Sb-O,mp-557989,[28408],K3Sb5O14,0.017617515,Pba2,y,?,,,,{},{},,,,,10.1107/S0567740874004079,1974,old refinement of mp-12156,FALSE
K-Sb-O,mp-12156,[2060],K3Sb5O14,0.01751618,Pbam,y,y,1373,AP,,{},{},2,y,"K2CO3, Sb2O3",,10.1107/S0567740874004079,1974,,FALSE
K-Sb-O,mp-17250,[279579],K3SbO3,0,P2_13,n,n,973,AP,,{},"{""step1"": {""cool rate"": [{""value"": ""5"", ""unit"": ""C/h""}], ""cool time"": [], ""cool medium"": [], ""cool type"": [], ""end temperature"": [""RT""], ""remark"": []}}",1,y,"K, KO2, Sb",from melt,10.1107/S0108270101006230,2001,heating temperature above the melting of all precursors,FALSE
K-Sb-O,mp-10543,[280867],K3SbO4,0,P2/c,n,n,973,,Ar,{},"{""step1"": {""cool rate"": [{""value"": ""5"", ""unit"": ""C/h""}], ""cool time"": [], ""cool medium"": [], ""cool type"": [], ""end temperature"": [{""value"": ""575"", ""unit"": ""K""}], ""remark"": []}, ""step2"": {""cool rate"": [{""value"": ""15"", ""unit"": ""C/h""}], ""cool time"": [], ""cool medium"": [], ""cool type"": [], ""end temperature"": [""RT""], ""remark"": []}}",1,y,"K, KO2, Sb2O3",from melt,10.1107/S0108270101014342,2001,heating temperature above the melting of all precursors,FALSE
K-Sb-O,mp-29696,[280170],K4Sb2O3,0.085052631,P6_3mc,?,?,,,,{},{},,,"K, Ba2O, Nb, Sb",,10.1107/S0108270198018484,1999,byproduct,FALSE
K-Sb-O,mp-1102223,[181898],K8SbO3,0.217174896,Pm-3m,?,?,,,,{},{},,,,,10.1016/j.ssc.2011.05.002,2011,modelling of K2O0.75Sb0.25,FALSE
K-Sb-O,mp-31001,[28493],KSb3O5,0,P2_1/c,n,n,,,,{},{},,,C4H4KO7Sb,decomposition,10.1007/s10973-013-3502-8,2014,"inhomogeneous; paper tested one solid state reaction route, but failed to obtain KSb3O5: Solid state preparation of KSb3O5 starting from stoichiometric Sb2O3 and KNO3 in the presence and absence of urea up to 600 C gave only Sb2O3.",FALSE
K-Sb-O,mp-10417,[411214],KSbO2,0,C2/c,y,y,873,,Ar,{},"{""step1"": {""cool rate"": [{""value"": ""5"", ""unit"": ""C/h""}], ""cool time"": [], ""cool medium"": [], ""cool type"": [], ""end temperature"": [""RT""], ""remark"": []}}",1,,"Sb, KO2",,10.1002/(SICI)1521-3749(200006)626:6<1305::AID-ZAAC1305>3.0.CO;2-L,2000,,FALSE
K-Sb-O,mp-547792,"[5311, 33546]",KSbO3,0,R-3,y,y,1273,AP,,{},{},1,,"KHCO3, Sb2O3",,10.1016/0025-5408(86)90090-5,1986,,FALSE
K-Sb-O,mp-14607,[41203],KSbO3,0.018389263,Pn-3,y,y,,,,{},{},,,,,10.1016/0025-5408(86)90090-5,1986,high temperature phase of mp-547792,FALSE
K-Sb-O,mp-16293,[77333],KSbO3,0.044743739,Fd-3m,y,?,,,,{},{},,,,,"Dissertation Stockholm (1943) 1943, (*) Article ID * (p. 1-144)",1943,translation issue: Sweden thesis with too many pages,FALSE
K-Sc-O,mp-8188,[34958],KScO2,0,R-3m,y,y,1093,,"O2,Ar",{},"{""step1"": {""cool rate"": [], ""cool time"": [], ""cool medium"": [], ""cool type"": [""quench""], ""end temperature"": [""RT""], ""remark"": []}}",2,,"Sc2O3, KO0.71",,10.1002/zaac.19653390305,1965,,TRUE
K-Se-O,mp-1080432,[195739],K2Se2O,0.272315214,C2/c,?,?,,,,{},{},,,,,,,ICSD 195739 contain hydrogen,N/A
K-Se-O,mp-559568,[63508],K2Se2O5,0,Pbca,?,?,,,,{},{},,,,,"Kristallografiya 30, 1007 (1985)",1985,translation issue: russian,FALSE
K-Se-O,mp-1190160,[428748],K2Se2O7,0,C2/c,y,y,573,AP,,{},"{""step1"": {""cool rate"": [], ""cool time"": [], ""cool medium"": [], ""cool type"": [""furnace cool""], ""end temperature"": [""RT""], ""remark"": []}}",1,,"K2CO3, H2SeO4",,10.1002/zaac.201500182,2015,,FALSE
K-Se-O,mp-1103867,[195741],K2Se4O,0.071166172,Cc,?,?,,,,{},{},,,,,,,ICSD 195741 contain hydrogen,N/A
K-Se-O,mp-5226,"[81689, 81691, 201882, 14298, 81690, 81688]",K2SeO4,0.000131318,Pnma,y,y,,,,{},{},,,"K2CO3, H2SeO4",,10.1080/00150199608223628,2011,,FALSE
K-Se-O,mp-557025,[201893],K2SeO4,0,Pna2_1,y,y,,,,{},{},,,,,10.1143/JPSJ.53.2565,1984,low temperature phase of mp-5226,FALSE
K-Se-O,mp-1192486,"[75258, 75257]",K3Se2O8,0.032830641,C2/c,?,?,,,,{},{},,,,,,,"ICSD 75258, 75257 contain hydrogen",N/A
K-Se-O,mp-559613,[240701],K6Se2O9,0,P4_12_12,y,y,898,2,,{},"{""step1"": {""cool rate"": [], ""cool time"": [], ""cool medium"": [], ""cool type"": [""quench""], ""end temperature"": [""RT""], ""remark"": []}}",1,,"K2O, K2SeO4",,10.1021/ic061548v,2006,,FALSE
K-Se-O,mp-1202593,[59150],KSeO4,0.14319592,Pbca,?,?,,,,{},{},,,,,,,ICSD 59150 contain hydrogen,N/A
K-Sn-O,mp-8624,[40463],K2Sn2O3,0,I2_13,y,n,,,,{},{},,,KSn,oxidation,10.1002/zaac.19845090215,1984,other phase of mp-7502; from abstract,FALSE
K-Sn-O,mp-7502,[15511],K2Sn2O3,0.008189014,R-3m,y,y,823,,Ar,{},{},1,,"KO0.48, SnO",,10.1002/anie.197804491,1978,,FALSE
K-Sn-O,mp-17730,"[16265, 24131]",K2SnO3,0,Pnma,y,y,1323,AP,,{},{},1,,"SnO2, K2CO3",,tel.archives-ouvertes.fr/tel-00159629/,1964,,TRUE
K-Sn-O,mp-1079820,[27147],K2SnO6,0.495392401,R-3,?,?,,,,{},{},,,,,,,ICSD 27147 contain hydrogen,N/A
K-Sn-O,mp-14988,[79101],K4SnO3,0,Pbca,?,?,573,,Ar,{},"{""step1"": {""cool rate"": [{""value"": ""5"", ""unit"": ""C/h""}], ""cool time"": [], ""cool medium"": [], ""cool type"": [], ""end temperature"": [""RT""], ""remark"": []}}",1,,"K, SnO2",,10.1002/zaac.19956210511,1995,translation issue: might be solid state reaction or self flux,TRUE
K-Sn-O,mp-7258,[158],K4SnO4,0,P-1,y,y,1173,AP,,{},{},1,,"KNO3, SnO2",,10.1107/S0567740875003123,1975,,TRUE
K-Ta-O,mp-1195471,[425506],K2Ta4O11,0,R-3c,y,y,1173,AP,,{},{},1,,"KOH, Ta2O5",,10.1155/2012/525727,2012,,FALSE
K-Ta-O,mp-4690,"[30406, 73104]",K3TaO8,0.011435988,I-42m,n,n,,,,{},{},,,"Ta2O5, KOH, H2O2, H2O",precipitation,10.1002/zaac.19936190727,1993,from abstract,FALSE
K-Ta-O,mp-27169,[2462],KTa5O13,0,Pbcm,n,n,,,,{},{},,,"Ta, KOH",anodization,10.1016/j.materresbull.2009.09.017,2010,,FALSE
K-Ta-O,mp-3614,"[39673, 184922, 56439, 181838, 56440, 39905, 280424]",KTaO3,0,Pm-3m,y,y,1623,,,"{""step1"": {""grind method"": [""ball milling""], ""wet/dry"": [], ""liquid"": [""alcohol""]}}","{""step1"": {""cool rate"": [{""value"": ""300"", ""unit"": ""C/h""}], ""cool time"": [], ""cool medium"": [], ""cool type"": [], ""end temperature"": [""RT""], ""remark"": []}}",2,,"K2CO3, Ta2O5",,10.1016/j.jeurceramsoc.2011.06.012,2011,,FALSE
K-Tc-O,mp-7621,"[61, 423222]",KTcO4,0,I4_1/a,n,n,,,,{},{},,,"Tc2O7, KOH",wet synthesis,10.1107/S056774087600530X,1976,,FALSE
K-Te-O,mp-561973,[1728],KTe2O6,0,C2/m,n,n,,,,{},{},,,,hydrothermal,10.1107/S0567740878006706,1978,,TRUE
K-Te-O,mp-1198096,"[413722, 55451]",K2Te3O12,0.203562744,Fdd2,?,?,,,,{},{},,,,,,,ICSD 413722 contain hydrogen,N/A
K-Te-O,mp-29129,[83844],K2Te2O5,0,P2_1/c,n,n,,,,{},{},,,"K2CO3, TeO2",from melt,10.1021/ic970497m,1997,,FALSE
K-Te-O,mp-29128,[83843],K2Te4O9,0,P2_1/c,n,n,,,,{},{},,,"K2CO3, TeO2",from melt,10.1021/ic970497m,1997,,FALSE
K-Te-O,mp-8724,[65640],K2TeO3,0,P-3,n,n,,,,{},{},,,"TeO2, K2O",from melt,10.1107/S0108768189004684,1989,,FALSE
K-Te-O,mp-1195914,[51492],KTe2O9,0.32514182,P2_1/c,?,?,,,,{},{},,,,,,,ICSD 51492 contain hydrogen,N/A
K-Te-O,mp-1192052,[21100],KTeO4,0.04791946,P2_1/c,?,?,,,,{},{},,,,,,,ICSD 21100 contain hydrogen,N/A
K-Te-O,mp-1102673,[22062],KTeO4,0.050170891,C2/c,?,?,,,,{},{},,,,,,,ICSD 22062 contain hydrogen,N/A
K-Ti-O,mp-28075,[36097],K2Ti2O5,0,C2/m,y,y,1203,AP,,"{""step1"": {""grind method"": [""mixed""], ""wet/dry"": [], ""liquid"": [""acetone""]}}","{""step1"": {""cool rate"": [{""value"": ""18"", ""unit"": ""C/h""}], ""cool time"": [], ""cool medium"": [], ""cool type"": [], ""end temperature"": [""RT""], ""remark"": []}}",1,,"KNO3, TiO2",,10.1016/j.matlet.2019.126784,2020,,FALSE
K-Ti-O,mp-8065,"[25712, 184901]",K2Ti6O13,0,C2/m,y,y,1273,AP,,"{""step1"": {""grind method"": [""agate mortar""], ""wet/dry"": [], ""liquid"": [""acetone""]}}",{},1,,"K2CO3, TiO2",,10.1016/j.apsusc.2012.04.018,2012,,FALSE
K-Ti-O,mp-13133,[162216],K2TiO3,0,Cmcm,y,y,1123,AP,,"{""step1"": {""grind method"": [""agate mortar""], ""wet/dry"": [], ""liquid"": [""acetone""]}}",{},1,,"TiO2, KNO3",,10.1039/C4DT01891E,2014,excess KNO3,FALSE
K-Ti-O,mp-5455,"[67396, 66774]",K6Ti2O7,0,P2_1/c,y,y,1073,,,{},{},1,,"KO0.52, TiO2",,10.1016/0022-5088(90)90068-U,1990,,TRUE
K-Ti-O,mp-560228,[67397],K6Ti2O7,0.000321806,Pc,y,?,,,,{},{},,,,,10.1016/0022-5088(90)90068-U,1990,other refinement of mp-5455,FALSE
K-Ti-O,mp-1180658,[94775],KTiO3,0.097837546,P6_3/mmc,?,?,,,,{},{},,,,,,,ICSD 94775 contain hydrogen,N/A
K-Tl-O,mp-555531,[171625],K5Tl3O,0,Cmcm,?,?,,,,{},{},,,,,10.1039/B601802E,2006,insufficient information: little to no details on synthesis parameters,FALSE
K-Tl-O,mp-14439,[48169],K5TlO4,0,Pbca,y,y,873,,,{},{},2,,"K2O, Tl2O3",,10.1002/zaac.19845171005,1984,,FALSE
K-Tl-O,mp-27716,[1570],KTlO,0,C2/m,y,y,923,,Ar,{},{},2,,"K2O, Tl2O",,10.1039/C8NR08046A,2018,,FALSE
K-Tl-O,mp-8175,[33553],KTlO2,0,R-3m,y,y,733,,"N2,O2",{},{},1,,"Tl2O3, KO0.923",,10.1002/zaac.19613070309,1961,,TRUE
K-U-O,mp-29361,[202984],K2U2O7,0,P2_1,y,y,1073,AP,,{},"{""step1"": {""cool rate"": [], ""cool time"": [], ""cool medium"": [], ""cool type"": [""slow cooling""], ""end temperature"": [""RT""], ""remark"": []}}",1,,"U3O8, K2CO3",,10.1016/S0924-2031(98)00021-6,1998,,FALSE
K-U-O,mp-540610,[9990],K2U7O22,0.038469805,Pbam,y,y,973,AP,,{},{},1,,"UO3, K2CO3",,10.1016/0022-1902(76)80203-5,1976,,FALSE
K-U-O,mp-3808,"[380361, 20141, 20510]",K2UO4,0,I4/mmm,y,y,973,AP,,{},{},1,,"UO3, K2CO3",,10.1016/0022-1902(76)80203-5,1976,,FALSE
K-U-O,mp-8794,[68361],K4UO5,0,P-1,n,n,,,,{},{},,,"Li6UO6, K2O",ion exchange,"Revue de Chimie Minerale 23, 828 (1986)",1986,,TRUE
K-U-O,mp-4126,"[71241, 44521, 99547]",KUO3,0,Pm-3m,y,y,1073,,Ar/H2,{},{},1,,"U3O8, K2CO3",,10.1016/j.jssc.2004.02.021,2004,,FALSE
K-V-O,mp-16787,"[245500, 1925]",K2V3O8,0,P4bm,y,y,823,0,vacuum,{},"{""step1"": {""cool rate"": [], ""cool time"": [], ""cool medium"": [], ""cool type"": [""slow cooling""], ""end temperature"": [""RT""], ""remark"": []}}",1,,"KVO3, V2O3, V2O5",,10.1006/jssc.1995.1075,1995,,FALSE
K-V-O,mp-581174,[154164],K2V8O21,0.009521929,C2/m,y,y,723,AP,,{},{},1,,"K2CO3, V2O5",,10.1016/j.solidstatesciences.2004.10.013,2005,,FALSE
K-V-O,mp-1201198,[99807],K2VO6,0.422637345,P2_1/c,?,?,,,,{},{},,,,,,,ICSD 99807 contain hydrogen,N/A
K-V-O,mp-1200488,[151450],K3V2O12,0.436845337,P2_1/c,?,?,,,,{},{},,,,,,,ICSD 151450 contain hydrogen,N/A
K-V-O,mp-18761,[100782],K3V3O8,0,P-3m1,n,n,1073,3.5,,{},{},1,,KVO3,decomposition,10.1016/0025-5408(80)90072-0,1980,,FALSE
K-V-O,mp-27704,"[24068, 248227]",K3V5O14,0,P31m,y,y,653,AP,,{},{},1,,"KNO3, V2O5",,10.1021/ic1008297,2010,,FALSE
K-V-O,mp-19052,[4138],K3VO4,0.021531058,I-42m,y,y,1073,,air;O2,{},{},1,,"K2CO3, V2O5",,10.1039/DT9730002614,1973,alpha phase; inhomogeneous,FALSE
K-V-O,mp-560869,[108936],K3VO4,0,P2_13,y,?,,,,{},{},,,,,10.1002/zaac.19754120311,1975,beta phase; other phase of mp-19052; insufficient information,TRUE
K-V-O,mp-1182613,[49917],K3VO5,0.138422674,Pbca,?,?,,,,{},{},,,,,,,ICSD 49917 contain hydrogen,N/A
K-V-O,mp-557105,[250388],K4V2O7,0,C2/m,y,y,1073,,"air,vacuum",{},{},2,,"K2CO3, V2O5",,10.1134/S0036023606050159,2006,,FALSE
K-V-O,mp-1193622,[62001],K4V2O9,0.248505066,Cmcm,?,?,,,,{},{},,,,,,,ICSD 62001 contain hydrogen,N/A
K-V-O,mp-28280,[48198],K5V3O10,0,P4_12_12,?,?,,,,{},{},,,,,10.1107/S0108270185004966,1985,insufficient information: no synthesis information,FALSE
K-V-O,mp-19172,"[238110, 421064, 50008, 29075, 23975]",KV3O8,0,P2_1/m,y,y,730,AP,,{},{},1,,"K2CO3, V2O5",,10.1021/ja992541y,1999,,FALSE
K-V-O,mp-29230,"[100596, 183109]",KV4O8,0.037645742,I4/m,y,y,1473,4,,{},{},1,,"KVO3, V2O3, V2O5",,10.1143/JPSJ.75.073801,2006,,FALSE
K-V-O,mp-18390,[410569],KV6O11,0.15803158,P6_3mc,y,y,,,,{},{},,,,,10.1103/PhysRevB.60.3764,1998,low temperature phase of mp-17353,FALSE
K-V-O,mp-17353,[410568],KV6O11,0.025303619,P6_3/mmc,y,y,1573,6,,{},{},1,,"KVO3, V2O3, V2O4",,10.1103/PhysRevB.60.3764,1998,,FALSE
K-V-O,mp-18815,"[33706, 1486, 44528]",KVO3,0,Pbcm,y,y,773,,O2,{},{},1,,"KOH, V2O5",,10.1039/DT9730002614,1973,ICSD 33706 doi not working,FALSE
K-V-O,mp-1180691,"[24728, 33708]",KVO4,0.411235808,Pnma,?,?,,,,{},{},,,,,,,"ICSD 24728, 33708 contain hydrogen",N/A
K-W-O,mp-19037,[67284],K2W2O7,0,P2_1/c,y,y,1273,4,,{},{},1,,"K2WO4, WO3",,10.1515/znb-1990-0202,1990,,TRUE
K-W-O,mp-18780,"[26181, 150840]",K2WO4,0,C2/m,y,y,900,,dry air,{},{},1,,"K2CO3, WO3",,10.1016/S0921-4526(03)00081-4,2003,,FALSE
K-W-O,mp-29347,[202672],K2WO8,0.130565721,R-3c,n,n,,,,{},{},,,"H2O2, K2WO4, H2O",wet synthesis,10.1016/0022-5088(88)90058-6,1988,,FALSE
K-W-O,mp-504840,[33294],K4WO5,0,P-1,y,y,1123,,Ar,{},{},2,,"WO3, KO0.58",,10.1016/0022-5088(85)90128-6,1985,,TRUE
K-Y-O,mp-8409,[49650],KYO2,0,R-3m,y,y,873,,,{},"{""step1"": {""cool rate"": [], ""cool time"": [], ""cool medium"": [], ""cool type"": [""quench""], ""end temperature"": [""RT""], ""remark"": []}}",1,,"K2O, Y2O3",,10.1002/zaac.19683570408,1968,,TRUE
K-Zn-O,mp-28371,[62146],K2Zn3O4,0,C2/c,y,y,1073,,,{},{},1,,"K2O, ZnO",,10.1088/1674-1056/20/7/076402,2011,,FALSE
K-Zn-O,mp-559112,"[2496, 1120]",K2Zn6O7,0.012927885,P4_2nm,y,y,973,,Ar,{},{},1,y,"K2O, ZnO",,10.1002/ange.19770890731,1977,,TRUE
K-Zn-O,mp-8187,[34603],K2ZnO2,0,Ibam,y,y,723,,Ar,{},{},1,,"KO0.62, ZnO",,10.1002/zaac.200900431,2010,,TRUE
K-Zn-O,mp-28382,[62656],K4ZnO3,0,P-1,?,?,723,,,{},{},,,"ZnO, KO0.48; K2ZnO2, KO0.48",,10.1002/zaac.200900431,2010,insufficient information:,TRUE
K-Zr-O,mp-27522,[18301],K2Zr2O5,0.01459737,Pnna,y,y,1123,AP,,"{""step1"": {""grind method"": [""ball milling""], ""wet/dry"": [], ""liquid"": []}, ""step2"": {""grind method"": [""agate mortar""], ""wet/dry"": [], ""liquid"": []}}",{},1,,"ZrO2, K2CO3",,10.1016/j.apenergy.2016.02.135,2016,inhomogeneous,FALSE
K-Zr-O,mp-18449,[16264],K2ZrO3,0,Pnma,y,y,,,,{},{},,,"ZrO2, K2CO3",,10.1063/1.3683519,2012,,FALSE
K-Zr-O,mp-27377,[14024],K4Zr5O12,0,P-3m1,y,y,1373,AP,,"{""step1"": {""grind method"": [""ball milling""], ""wet/dry"": [], ""liquid"": []}}",{},1,,"K2CO3, ZrO2",,10.1016/j.jiec.2010.01.019,2010,excess K2CO3,FALSE
La-Al-O,mp-2920,"[90535, 153821, 90525, 90526, 153824, 90536, 153822, 92522, 174022, 90530, 164506, 90532, 90527, 92521, 90534, 90523, 90533, 74494, 90522, 92523, 180175, 153826, 164507, 153823, 90529, 92554, 90524, 182612, 90528, 153825, 164508, 180415, 90531]",LaAlO3,0,R-3c,y,y,1573,AP,,{},{},3,,"Al(NO3)3·9H2O, La(Ac)3",,10.1088/0953-8984/12/4/301,2000,,FALSE
La-Al-O,mp-5304,"[90540, 191426, 90547, 90542, 191410, 191420, 90537, 153827, 92560, 90550, 191425, 191421, 191417, 90556, 191416, 92559, 90545, 191413, 90555, 92557, 28629, 191428, 153834, 90546, 191415, 191414, 90553, 153832, 191412, 164509, 90549, 153833, 182616, 153828, 164511, 153830, 191409, 35551, 92555, 90551, 153835, 92558, 92561, 90541, 191422, 182614, 92562, 191464, 153829, 191419, 191427, 191429, 90539, 153831, 182615, 191418, 182613, 90543, 191424, 90552, 90554, 90548, 170772, 90544, 92556, 191423, 164510, 153836, 191411]",LaAlO3,0.006788504,Pm-3m,y,y,,,,{},{},,,,,10.1088/0953-8984/12/4/301,2000,high temperature phase of mp-2920,FALSE