system,mp_id,icsd_ids,composition,e_above_hull,Spacegroup Number,solid_state_synthesized_composition,solid_state_synthesized_structure,sss_highest_temperature(K),sss_pressure(GPa),sss_atmosphere,sss_mixing_condition,sss_cooling_condition,sss_heating_step,single_crystal,sss_precursor,other_synthesis_method,reference,reference_year,comment,google_translate
Mn-As-O,mp-557471,"[165268, 73489, 165270, 165271, 165269]",MnAsO4,0.003802409,P2_1/c,n,n,,,,{},{},,,MnAsO4·xH2O,decomposition,10.1021/ic00062a009,1993,,FALSE
Mn-Bi-O,mp-505201,"[75079, 75390]",MnBi12O20,0.050367098,I23,y,y,973,AP,,{},{},1,,"MnO2, Bi2O3",,10.1006/jssc.1994.1136,1994,,FALSE
Mn-Bi-O,mp-1198549,[262058],Mn16Bi16O45,0.044212873,I-43d,?,?,,,,{},{},,,BiMnO3,,10.1021/ic2007233,2011,minority phase,FALSE
Mn-Bi-O,mp-1190266,"[182795, 184382]",Mn2Bi3O7,0.07213097,Cmc2_1,?,?,,,,{},{},,,BiMnO3,,10.1039/C1JM12840J,2011,minority phase,FALSE
Mn-Bi-O,mp-504697,"[184694, 169734, 169735, 262871, 26806, 169736]",Mn2BiO5,0,Pbam,y,y,1098,AP,,"{""step1"": {""grind method"": [""agate mortar""], ""wet/dry"": [], ""liquid"": [""acetone""]}}",{},2,,"Bi2O3, MnO2",,10.1016/j.jssc.2011.10.046,2012,,FALSE
Mn-Bi-O,mp-1189861,"[187651, 174204]",Mn7BiO12,0.040998895,C2/m,y,?,,,,{},{},,,,,10.1021/acs.inorgchem.7b01723,2017,other refinement of mp-1188529,FALSE
Mn-Bi-O,mp-1188529,[164184],Mn7BiO12,0.038077421,Cm,y,y,1273,4,,{},"{""step1"": {""cool rate"": [], ""cool time"": [], ""cool medium"": [], ""cool type"": [""furnace cool""], ""end temperature"": [""RT""], ""remark"": []}}",1,,"Bi2O3, Mn2O3",,10.1103/PhysRevB.79.100106,2009,,FALSE
Mn-Bi-O,mp-1105271,"[238293, 238294]",MnBiO3,0.025675422,Pnma,y,y,,,,{},{},,,,,10.1021/ic5013878,2014,high pressure phase of mp-23477,FALSE
Mn-Bi-O,mp-1194603,[238292],MnBiO3,0.722539408,P2_1/c,y,y,,,,{},{},,,,,10.1021/ic5013878,2014,high pressure phase of mp-23477,FALSE
Mn-Bi-O,mp-1106239,"[247326, 245299]",MnBiO3,0.029918505,Cc,y,?,,,,{},{},,,,,10.1021/ja0664032,2007,old refinement of mp-23477,FALSE
Mn-Bi-O,mp-23477,"[193189, 238291, 193188, 183903, 181382, 183904, 183902, 181384, 56842, 181383]",MnBiO3,0.028163882,C2/c,y,y,1073,4,,{},{},1,,,,10.1021/ic5013878,2014,excess Bi2O3,FALSE
Mn-Bi-O,mp-1202955,[182796],MnBiO3,0.034840861,Pmn2_1,y,?,,,,{},{},,,,,10.1039/C1JM12840J,2011,oxygen-deficient sample of mp-23477,FALSE
Mn-Bi-O,mp-556711,[159861],MnBiO3,0.097888127,P2_1/c,y,?,,,,{},{},,,,,10.1143/JPSJ.76.124605,2007,local structure refinement of mp-23477,FALSE
Mn-Cd-O,mp-18720,[24258],Mn2CdO4,0,I4_1/amd,y,y,1173,AP,,{},{},1,,"CdO, Mn2O3",,10.1063/1.4903949,2014,ICSD 24258 doi not working,FALSE
Mn-Cd-O,mp-18870,[16957],Mn3Cd2O8,0,C2/m,n,n,,,,{},{},,,Cd2Mn3(CO3)5,solid solution calcite route,10.1016/0022-4596(79)90225-1,1979,,FALSE
Mn-Cd-O,mp-1105241,[195756],Mn7CdO12,0.051584763,Im-3,y,y,,,,{},{},,,,,10.1021/acs.inorgchem.5b01472,2015,high temperature phase of mp-1105404,FALSE
Mn-Cd-O,mp-1105404,[195754],Mn7CdO12,0.052454767,R-3,y,y,1373,6,,{},"{""step1"": {""cool rate"": [], ""cool time"": [], ""cool medium"": [], ""cool type"": [""quench""], ""end temperature"": [""RT""], ""remark"": []}}",1,,"CdO, MnO2, Mn2O3",,10.1021/acs.inorgchem.5b01472,2015,,FALSE
Mn-Co-O,mp-504423,[1979],Mn3Co2O8,0,Pmn2_1,n,n,,,,{},{},,,"CoCl2·6H2O, NaBH4, KMnO4",chemical route,10.1021/acssuschemeng.7b02739,2017,,FALSE
Mn-Co-O,mp-20641,[31854],MnCoO3,0,R-3,y,y,1573,,,{},{},1,,"CoO, MnO2",,10.1002/pssa.2211130151,1989,,FALSE
Mn-Cr-O,mp-28226,"[167425, 31161, 167400]",MnCr2O4,0,Fd-3m,y,y,1573,,Ar,{},{},1,,"Cr2O3, MnO2",,10.1016/j.jmmm.2009.02.023,2009,,FALSE
Mn-Cr-O,mp-754276,[237338],MnCrO4,0.058870398,Cmcm,n,n,,,,{},{},,,,,10.1021/ic401391b,2013,,FALSE
Mn-Cu-O,mp-505421,"[174000, 27920, 166501, 201399]",Mn2CuO4,0.042699803,Fd-3m,y,y,1173,AP,,{},"{""step1"": {""cool rate"": [], ""cool time"": [], ""cool medium"": [], ""cool type"": [""quench""], ""end temperature"": [""RT""], ""remark"": []}}",1,,"CuO, Mn2O3",,10.1021/j150560a012,1958,,FALSE
Mn-Cu-O,mp-504567,[971],Mn3Cu2O8,0.02530429,C2/m,n,n,,,,{},{},,,"Mn(NO3)2·4H2O, CuO, KMnO4",hydrothermal,10.1016/j.ssi.2006.02.001,2006,,FALSE
Mn-Cu-O,mp-21784,[624],Mn3Cu3O8,0.020463435,P4_332,y,y,,,,{},{},,,,,10.1016/0022-3697(66)90045-X,1966,"ICSD 624 doi is wrong; based on references 1, all the compounds in the paper have been synthesized via solid state reaction",FALSE
Mn-Cu-O,mp-510589,"[30379, 158960]",MnCuO2,0,C2/m,y,y,1233,0,vacuum,{},{},1,,"Cu2O, Mn2O3",,10.1016/S0360-3199(02)00023-X,2003,,FALSE
Mn-Fe-O,mp-18750,"[24497, 170910]",MnFe2O4,0,Fd-3m,y,y,1623,AP,,{},"{""step1"": {""cool rate"": [], ""cool time"": [], ""cool medium"": [], ""cool type"": [""quench""], ""end temperature"": [""RT""], ""remark"": []}}",1,,"Fe2O3, MnO2",,10.1016/j.ceramint.2016.05.041,2016,,FALSE
Mn-Ge-O,mp-22781,"[22045, 17015, 6312]",Mn2GeO4,1.393959593,Imma,y,y,,,,{},{},,,,,pubs.geoscienceworld.org/msa/ammin/article/57/1-2/62/542589/Crystal-structures-of-the-high-pressure-polymorphs,1972,beta phase; high temperature/pressure phase of mp-20223,FALSE
Mn-Ge-O,mp-21877,"[22046, 36065]",Mn2GeO4,0.068196448,Pbam,y,y,,,,{},{},,,,,pubs.geoscienceworld.org/msa/ammin/article/57/1-2/62/542589/Crystal-structures-of-the-high-pressure-polymorphs,1972,sigma phase; high temperature/pressure phase of mp-20223,FALSE
Mn-Ge-O,mp-20223,"[23587, 108995]",Mn2GeO4,0,Pnma,y,y,1373,AP,,{},{},2,,"MnCO3, GeO2",,10.1016/0038-1098(70)90356-X,1970,alpha phase,FALSE
Mn-Ge-O,mp-1106201,[290044],MnGeO3,0,C2/c,y,?,,,,{},{},,,,,10.1088/0953-8984/23/25/254202,2011,other phase of mp-643577; minority phase,FALSE
Mn-Ge-O,mp-20798,"[73243, 73244, 73246, 73245, 73247, 69591, 174042]",MnGeO3,0.016753199,R-3,y,y,,,,{},{},,,,,10.1143/JPSJ.37.1242,1974,high pressure phase of mp-643577,FALSE
Mn-Ge-O,mp-643577,"[4417, 162671, 290045, 24884]",MnGeO3,0.027883012,Pbca,y,y,1473,AP,,"{""step1"": {""grind method"": [""agate mortar""], ""wet/dry"": [], ""liquid"": [""alcohol""]}}",{},1,,"MnO, GeO2",,10.1088/0953-8984/23/25/254202,2011,inhomogeneous; excess GeO2,FALSE
Mn-In-O,mp-505751,[56517],Mn2In2O7,0,Fd-3m,y,y,1573,0.04,O2/Ar,{},{},1,,"MnO2, In2O3",,10.1103/PhysRevB.59.1249,1999,,FALSE
Mn-In-O,mp-550807,[67671],MnInO3,0.022050692,P6_3/mmc,y,?,,,,{},{},,,,,10.1006/jssc.1995.1192,1995,other refinement of mp-1193141,FALSE
Mn-In-O,mp-1193780,[186855],MnInO3,0.016595368,P-3c1,y,?,,,,{},{},,,,,10.1103/PhysRevB.85.174422,2012,other refinement of mp-1193141,FALSE
Mn-In-O,mp-1193141,"[186856, 79484, 185383, 188225]",MnInO3,0.014512735,P6_3cm,y,y,1373,6,,{},"{""step1"": {""cool rate"": [], ""cool time"": [], ""cool medium"": [], ""cool type"": [""quench""], ""end temperature"": [""RT""], ""remark"": []}}",1,,"In2O3, Mn2O3",,10.1103/PhysRevB.85.174422,2012,,FALSE
Mn-Mo-O,mp-504503,"[10144, 248082]",Mn2Mo3O8,0.718017769,P6_3mc,y,y,1273,,,{},{},1,,"MnO, MoO2",,10.1016/S0021-9614(05)80259-9,1992,,FALSE
Mn-Mo-O,mp-19081,"[78328, 15615]",MnMoO4,0,C2/m,y,y,873,AP,,"{""step1"": {""grind method"": [""agate mortar""], ""wet/dry"": [], ""liquid"": []}}",{},1,,"MoO3, MnCO3",,10.1016/S0167-2738(01)01013-X,2002,alpha phase,FALSE
Mn-Mo-O,mp-19455,[61078],MnMoO4,0.004236254,P2/c,y,y,,,,{},{},,,,,10.1126/science.141.3578.348,1963,high temperature/pressure phase of mp-19081,FALSE
Mn-Nb-O,mp-31908,[62661],Mn3Nb6O11,0,P-3m1,n,n,,,,{},{},,,"LiF, MnF2, Mn, NbO, NbO2",from melt,10.1515/znb-1987-0504,1987,,TRUE
Mn-Nb-O,mp-31901,"[29216, 202550, 27133]",Mn4Nb2O9,0,P-3c1,y,y,1523,,H2,{},{},1,,,,10.1016/0022-3697(61)90103-2,1961,,TRUE
Mn-Nb-O,mp-22100,"[151724, 15856, 31944]",MnNb2O6,0.249816151,Pbcn,y,y,1223,0,vacuum,{},{},1,,"Nb2O5, MnO",,10.1039/B405666C,2004,,FALSE
Mn-Nb-O,mp-29876,[89477],MnNb3O6,0.02017941,Immm,y,y,1573,,H2,{},{},1,,"MnO, Nb, Nb2O5",,10.1016/S1293-2558(00)80108-9,1999,,FALSE
Mn-Ni-O,mp-19442,"[80301, 40584]",MnNi6O8,0,Fm-3m,n,n,,,,{},{},,,,precursor method,10.1016/0022-4596(91)90257-I,1991,,FALSE
Mn-Ni-O,mp-1239107,[391439],Mn2NiO14,0.708794924,P3m1,?,?,,,,{},{},,,,,,,ICSD 391439 contain hydrogen,N/A
Mn-Ni-O,mp-29399,[201398],Mn2NiO4,0.20785659,Fd-3m,y,y,1173,AP,,{},"{""step1"": {""cool rate"": [], ""cool time"": [], ""cool medium"": [], ""cool type"": [""quench""], ""end temperature"": [""RT""], ""remark"": []}}",1,,,,10.1088/0022-3719/9/7/024,1975,,FALSE
Mn-Ni-O,mp-1192587,[5045],Mn3NiO10,0.336760647,R-3,?,?,,,,{},{},,,,,,,ICSD 5045 contain hydrogen,N/A
Mn-Ni-O,mp-19331,[31853],MnNiO3,0,R-3,y,y,1573,,,{},{},1,,"NiO, MnO2",,10.1002/pssa.2211130151,1989,,FALSE
Mn-Pb-O,mp-21823,"[159208, 174591, 33990]",MnPb2O4,0.000669878,P-42_1c,y,y,1003,AP,,{},{},1,,"PbO, Mn2O3",,10.1039/B704361A,2007,,FALSE
Mn-Pb-O,mp-1204982,[174474],Mn2Pb2O5,0.062743039,Pnma,y,y,1273,7,,{},"{""step1"": {""cool rate"": [], ""cool time"": [], ""cool medium"": [], ""cool type"": [""quench""], ""end temperature"": [""RT""], ""remark"": []}}",1,,"PbO, Mn2O3",,10.1016/j.jssc.2010.07.032,2010,,FALSE
Mn-Pb-O,mp-704327,"[183990, 173835, 173836]",Mn7Pb3O15,0.00991885,Pnma,y,y,1103,AP,,{},{},1,,"PbO, Mn2O3",,10.1063/1.4948219,2016,,FALSE
Mn-Pb-O,mp-1197400,[2574],Mn7Pb3O15,0.010011048,Cmc2_1,y,?,,,,{},{},,,,,10.1016/j.physb.2011.11.058,2012,old refinement of mp-704327,FALSE
Mn-Pb-O,mp-583252,"[183992, 183991, 60023]",Mn7Pb3O15,0.005348669,P6_3/mcm,y,y,,,,{},{},,,,,10.1016/j.physb.2011.11.058,2012,high temperature phase of mp-704327; other refinement of mp-704327,FALSE
Mn-Pb-O,mp-649813,[38269],Mn7Pb3O15,0.011371145,Cmcm,y,?,,,,{},{},,,,,10.1016/j.physb.2011.11.058,2012,old refinement of mp-704327,FALSE
Mn-Pb-O,mp-1105390,"[252387, 252389]",Mn7PbO12,0.026559261,R-3,y,y,1373,6,,{},"{""step1"": {""cool rate"": [], ""cool time"": [], ""cool medium"": [], ""cool type"": [""quench""], ""end temperature"": [""RT""], ""remark"": []}}",1,,"PbO, Mn2O3, MnO2",,10.1021/acs.jpcc.6b01649,2016,,FALSE
Mn-Pb-O,mp-1105431,"[252391, 262742, 262741]",Mn7PbO12,0.025347,Im-3,y,y,,,,{},{},,,,,10.1021/acs.jpcc.6b01649,2016,high temperature phase of mp-1105390,FALSE
Mn-Pb-O,mp-1199449,[246826],Mn9Pb4O20,0.003771221,Pnma,y,y,1023,,"air,O2",{},"{""step1"": {""cool rate"": [], ""cool time"": [], ""cool medium"": [], ""cool type"": [""furnace cool""], ""end temperature"": [""RT""], ""remark"": []}}",1,,"PbO, Mn2O3, Pb4Mn9O17.5",,10.1016/j.jssc.2009.06.003,2009,,FALSE
Mn-Pb-O,mp-510672,[246351],MnPbO3,0.078826041,C2/c,y,y,1073,8,,{},{},1,,"PbO, PbO2, Mn2O3",,10.1021/ic802081f,2009,,FALSE
Mn-Pb-O,mp-1106337,[15234],MnPbO3,0.088344388,P2/c,y,?,,,,{},{},,,,,,,ICSD 15234 contain hydrogen,N/A
Mn-Pt-O,mp-18971,[35337],MnPt3O6,0,Cmmm,y,y,1123,0.3,Ar,{},{},1,,"PtO2, MnO",,10.1107/S010876818300230X,1983,,FALSE
Mn-Re-O,mp-627380,[51014],MnRe2O8,0,P-3,n,n,,,,{},{},,,Mn(ReO4)2·2H2O,decomposition,10.1006/jssc.1998.7806,1998,,FALSE
Mn-Re-O,mp-1105243,"[252568, 252567, 252569]",Mn3ReO6,0.05362262,P2_1/c,y,y,1673,5,,{},"{""step1"": {""cool rate"": [], ""cool time"": [], ""cool medium"": [], ""cool type"": [""furnace cool""], ""end temperature"": [""RT""], ""remark"": []}}",1,,"ReO3, MnO",,10.1021/acs.chemmater.6b00755,2016,,FALSE
Mn-Re-O,mp-31906,[170685],MnReO4,0.049111803,P2/c,y,y,1473,5.5,,"{""step1"": {""grind method"": [""agate mortar""], ""wet/dry"": [], ""liquid"": []}}","{""step1"": {""cool rate"": [], ""cool time"": [], ""cool medium"": [], ""cool type"": [""furnace cool""], ""end temperature"": [""RT""], ""remark"": []}}",1,,"MnO, ReO3",,10.1107/S0108768105005380,2005,,FALSE
Mn-Rh-O,mp-554354,[109300],MnRh2O4,0.000306494,Fd-3m,y,y,1023,,O2,{},{},1,,"Mn2O3, Rh2O3",,10.1524/zpch.1969.63.1_4.125,1969,inhomogeneous,TRUE
Mn-Sb-O,mp-19231,"[62802, 60409, 60408, 60407, 62801, 36353]",MnSb2O4,0,P4_2/mbc,y,y,903,AP,,{},"{""step1"": {""cool rate"": [], ""cool time"": [], ""cool medium"": [], ""cool type"": [""slow cooling""], ""end temperature"": [""RT""], ""remark"": []}}",1,,"Mn, Sb2O4",,10.3891/acta.chem.scand.39a-0389,1985,,FALSE
Mn-Sb-O,mp-1078318,[291234],MnSb2O6,0.01392178,P-31m,y,n,,,,{},{},,,"NaSbO3, MnSO4, KCl, KBr",ion exchange,10.1021/ic502666c,2015,other phase of mp-22576,FALSE
Mn-Sb-O,mp-22576,"[202319, 202953, 202192, 202952]",MnSb2O6,0,P321,y,y,1373,AP,,{},"{""step1"": {""cool rate"": [], ""cool time"": [], ""cool medium"": [], ""cool type"": [""furnace cool""], ""end temperature"": [""RT""], ""remark"": []}}",1,,"MnCO3, Sb2O3",,10.1103/PhysRevLett.111.017202,2013,,FALSE
Mn-Sb-O,mp-1190856,[247301],Mn2Sb2O7,0.029353067,Fd-3m,y,y,723,AP,,{},{},2,,"Sb2O5·xH2O, Mn(Ac)2·4H2O",,10.1016/j.jssc.2010.01.025,2010,,FALSE
Mn-Sb-O,mp-541741,"[236432, 236429, 67214, 202191, 236430, 236434, 236433, 236431]",Mn2Sb2O7,0.017426347,P3_121,y,y,,,,{},{},,,,,10.1016/j.solidstatesciences.2013.04.012,2013,high pressure phase of mp-1190856,FALSE
Mn-Se-O,mp-28669,[69801],MnSe2O6,0,P2_1/c,n,n,,,,{},{},,,"Mn(CH3OO)2·4H2O, H2O, H2SeO4",hydrothermal,10.1016/0022-4596(91)90092-V,1991,,FALSE
Mn-Se-O,mp-1197378,[1340],Mn2Se3O12,0.486225924,P2_1/c,?,?,,,,{},{},,,,,,,ICSD 1340 contain hydrogen,N/A
Mn-Se-O,mp-28915,[75509],Mn3Se3O10,0.063870421,C2/m,n,n,,,,{},{},,,"KOH, MnO2, SeO2, H2O",hydrothermal,10.1006/jssc.1994.1368,1994,,FALSE
Mn-Se-O,mp-17901,[27518],MnSe2O5,0,Pbcn,y,n,,,,{},{},,,"SeO2, CH3COOH, C4H6MnO4",precipitation,10.1006/jssc.1993.1335,1993,other phase of mp-19175,FALSE
Mn-Se-O,mp-19175,[73936],MnSe2O5,0.006162378,C2/c,y,y,673,0,vacuum,{},"{""step1"": {""cool rate"": [], ""cool time"": [], ""cool medium"": [], ""cool type"": [""slow cooling""], ""end temperature"": [""RT""], ""remark"": []}}",1,y,,,10.1006/jssc.1993.1335,1993,,FALSE
Mn-Se-O,mp-1205179,[1342],MnSe3O8,0.137513567,P2_1/c,?,?,,,,{},{},,,,,,,ICSD 1342 contain hydrogen,N/A
Mn-Se-O,mp-1202364,[414650],MnSeO3,0,P2_1/c,y,n,,,,{},{},,,"Mn(SeO3)·2H2O, H2O",hydrothermal,10.1039/B501190F,2005,other phase of mp-22224,FALSE
Mn-Se-O,mp-1199914,[414649],MnSeO3,0.000837327,P2_1/c,y,n,,,,{},{},,,"Mn(SeO3)·2H2O, H2O",hydrothermal,10.1039/B501190F,2005,other phase of mp-22224,FALSE
Mn-Se-O,mp-22224,"[495, 97751, 190005]",MnSeO3,0.020236508,Pnma,y,y,1123,3.5,,{},"{""step1"": {""cool rate"": [], ""cool time"": [], ""cool medium"": [], ""cool type"": [""quench""], ""end temperature"": [""RT""], ""remark"": []}}",1,,"H2SeO3, MnO",,10.1039/B607905A,2006,,FALSE
Mn-Se-O,mp-22579,[25698],MnSeO4,0.009115047,Pnma,n,n,,,,{},{},,,,,10.1002/pssb.2220930218,1979,beta phase,FALSE
Mn-Se-O,mp-1191320,[1344],MnSeO4,0.242717029,Pnma,n,?,,,,{},{},,,,,,,ICSD 1344 contain hydrogen,N/A
Mn-Se-O,mp-555327,[109071],MnSeO4,0,Cmcm,n,n,,,,{},{},,,MnSeO4·2H2O,decomposition,10.1088/0022-3719/17/19/022,1984,alpha phase,FALSE
Mn-Se-O,mp-1191616,[415550],MnSeO4,0.254005417,P2_1/c,n,?,,,,{},{},,,,,,,ICSD 415550 contain hydrogen,N/A
Mn-Se-O,mp-1103909,[6234],MnSeO5,0.208684819,C2/c,?,?,,,,{},{},,,,,,,ICSD 6234 contain hydrogen,N/A
Mn-Se-O,mp-1239063,[6234],MnSeO5,0.446976536,C2/c,?,?,,,,{},{},,,,,,,same ICSD as mp-1103909,N/A
Mn-Sn-O,mp-20569,[29203],MnSnO3,0,R-3,y,y,1623,6,,{},{},1,,"MnO, SnO2",,10.1016/0038-1098(69)90600-0,1969,,FALSE
Mn-Te-O,mp-18607,[82490],Mn2Te3O8,0,C2/c,y,y,975,,inert gas,{},{},1,,"MnCO3, TeO2",,10.1006/jcht.1993.1123,1993,,FALSE
Mn-Te-O,mp-18795,"[245054, 191441, 183618, 182436, 182435]",Mn3TeO6,0,R-3,y,y,1270,AP,,{},{},2,,"MnO, H2TeO4·2H2O",,10.1016/j.materresbull.2011.07.041,2011,,FALSE
Mn-Te-O,mp-16994,[280967],MnTe2O5,0.009464183,Pbcn,y,n,,,,{},{},,,"BaCO3, MnCl·4H2O, TeO2, H2O",hydrothermal,10.1107/S1600536802010231,2002,beta phase; other phase of mp-19503,FALSE
Mn-Te-O,mp-19503,"[15844, 73991]",MnTe2O5,0.015678319,P4_2/nbc,y,y,955,,inert gas,{},{},1,,"MnCO3, TeO2",,10.1006/jcht.1993.1123,1993,,FALSE
Mn-Te-O,mp-1201691,[250506],MnTe6O13,0.008978086,R-3,y,y,863,,N2,{},{},1,,"MnCO3, TeO2",,10.1039/B300573A,2003,,FALSE
Mn-Tl-O,mp-22354,"[83269, 83268, 56515]",Mn2Tl2O7,0.359523891,Fd-3m,y,y,1273,2.5,,{},{},1,,"MnO2, Tl2O3",,10.1103/PhysRevB.59.1249,1998,,FALSE
Mn-V-O,mp-562107,[81993],Mn2V2O7,0.003962479,P-1,y,y,,,,{},{},,,,,10.1006/jssc.1996.0030,1996,alpha phase; other phase of mp-19142; low temperature phase of mp-19142,FALSE
Mn-V-O,mp-19142,[81994],Mn2V2O7,0,C2/m,y,y,1073,AP,,{},{},1,,"MnO, V2O5",,10.1006/jssc.1996.0030,1996,beta phase,FALSE
Mn-V-O,mp-17899,"[422975, 92361]",Mn3V2O8,0,Cmce,y,y,1073,,Ar,"{""step1"": {""grind method"": [""ball milling""], ""wet/dry"": [], ""liquid"": []}}",{},1,,"MnO, V2O5",,10.1016/j.jssc.2011.07.042,2011,,FALSE
Mn-V-O,mp-1193782,[262806],Mn5VO8,0,C2/m,y,y,1173,,Ar,"{""step1"": {""grind method"": [""ball milling""], ""wet/dry"": [], ""liquid"": []}}",{},1,,"Mn2O3, V2O5",,10.1002/zaac.201200021,2012,,FALSE
Mn-V-O,mp-35475,[109148],MnV2O4,0.826357634,Fd-3m,y,y,1223,0,vacuum,{},{},1,,"Mn2O3, V2O3",,10.1088/0953-8984/20/13/135218,2008,,FALSE
Mn-V-O,mp-541825,[40850],MnV2O6,0.01195255,C2/m,y,y,993,AP,,"{""step1"": {""grind method"": [""agate mortar""], ""wet/dry"": [], ""liquid"": [""ethanol""]}}",{},3,,"V2O5, MnCO3",,10.1016/j.jallcom.2020.154499,2020,,FALSE
Mn-V-O,mp-1106224,[185418],MnVO3,0.032901711,Pnma,y,y,1373,4.5,,{},"{""step1"": {""cool rate"": [], ""cool time"": [], ""cool medium"": [], ""cool type"": [""quench""], ""end temperature"": [""RT""], ""remark"": []}}",1,,"VO2, MnO",,10.1016/S0022-3697(71)80026-4,1971,,FALSE
Mn-W-O,mp-19158,[74952],Mn3WO6,0,R-3,y,y,1473,0,vacuum,"{""step1"": {""grind method"": [""agate mortar""], ""wet/dry"": [], ""liquid"": []}}","{""step1"": {""cool rate"": [], ""cool time"": [{""value"": ""6"", ""unit"": ""hour""}], ""cool medium"": [], ""cool type"": [], ""end temperature"": [""RT""], ""remark"": []}}",1,,"MnO, WO3",,10.1021/acs.chemmater.0c01303,2020,,FALSE
Mn-W-O,mp-19407,"[67910, 67926, 248759, 67906, 67908, 67909, 188904, 27303, 15850, 67907]",MnWO4,0,P2/c,y,y,,,,{},{},,,"MnO, WO3",,10.1103/PhysRevB.48.6087,1993,,FALSE
Mn-Zn-O,mp-18751,"[166522, 15305, 39196, 107630]",Mn2ZnO4,0,I4_1/amd,y,y,1448,AP,,{},"{""step1"": {""cool rate"": [], ""cool time"": [], ""cool medium"": [""water""], ""cool type"": [], ""end temperature"": [""RT""], ""remark"": []}}",1,,"Mn3O4, ZnO",,10.1016/0021-9614(86)90047-9,1986,ICSD 107630 contain hydrogen,FALSE
Mn-Zn-O,mp-1193625,"[38142, 202701, 202700]",Mn3ZnO10,0.420082015,R-3,?,?,,,,{},{},,,,,,,"ICSD 38142, 202701, 202700 contain hydrogen",N/A
Mn-Zn-O,mp-1192094,[192706],Mn3ZnO7,0.508288352,R-3,n,n,,,,{},{},,,ZnMn3O7·3H2O,decomposition,10.2138/am-2014-4760,2014,,FALSE
Mo-As-O,mp-28775,[72518],MoAs2O7,0,P2_1/c,?,?,703,AP,,{},{},,,,,10.1016/0166-9834(91)85107-7,1991,uncertain phase percentage,FALSE
Mo-Pb-O,mp-21759,"[63373, 36605]",Mo5PbO8,0.277684731,P2_1/c,?,?,,,,{},{},,,,,www.researchgate.net/profile/Steffen_Feja/publication/44230188_Darstellung_und_Charakterisierung_ternarer_Molybdate_in_den_Systemen_M_-_Mo_-_O_M_Sn_Pb_Sb/links/00b4953c3e2390b784000000.pdf,2004,insufficent information,FALSE
Mo-Pb-O,mp-21138,[29270],MoPb2O5,0,C2/m,y,y,873,AP,,{},{},1,,"PbO, MoO3",,10.1016/j.jnucmat.2017.06.006,2017,,FALSE
Mo-Pb-O,mp-652366,[59316],MoPb5O8,0.011852263,P2_1/c,y,y,973,AP,,{},{},1,,"MoO3, PbO",,10.1016/S0022-0248(97)00107-3,1997,,FALSE
Mo-Pb-O,mp-22169,"[239428, 56111, 89034, 164725, 26784, 77336, 39137]",MoPbO4,0,I4_1/a,y,y,1273,AP,,"{""step1"": {""grind method"": [""agate mortar""], ""wet/dry"": [], ""liquid"": []}}",{},2,,"MoO3, PbO",,10.1016/j.materresbull.2016.03.015,2016,excess PbO; excess MoO3,FALSE
Mo-Rh-O,mp-22097,[200014],MoRh2O6,0.048221268,P4_2/mnm,n,n,,,,{},{},,,,hydrothermal,10.1007/BF00764823,1991,,FALSE
Na-Ag-O,mp-3527,"[24817, 16919]",Na3AgO2,0,Ibam,y,y,973,,Ar,{},{},1,,"Ag2O, Na2O",,10.1007/BF00593620,1969,,TRUE
Na-Ag-O,mp-27303,[9627],NaAg3O2,0,Ibam,y,y,673,0.035,O2,{},{},1,,"Ag2O, Na2O",,10.1515/znb-1976-1125,1976,,TRUE
Na-Ag-O,mp-1103169,"[188524, 49752]",NaAgO,0.000597741,I-4m2,n,n,,,,{},{},,,,,10.1002/zaac.19905850109,1990,ICSD 188524 not found; old refinement of mp-6983,FALSE
Na-Ag-O,mp-6983,[40153],NaAgO,0,I4/mmm,n,n,,,,{},{},1,,"Na2O2, Ag",reaction with wall,10.1002/zaac.19855240502,1985,,TRUE
Na-Ag-O,mp-1008866,[188531],NaAgO,0.2918892,F-43m,n,?,,,,{},{},,,,,10.1016/j.ssc.2012.10.016,2013,modelling of cubic NaAgO,FALSE