system,mp_id,icsd_ids,composition,e_above_hull,Spacegroup Number,solid_state_synthesized_composition,solid_state_synthesized_structure,sss_highest_temperature(K),sss_pressure(GPa),sss_atmosphere,sss_mixing_condition,sss_cooling_condition,sss_heating_step,single_crystal,sss_precursor,other_synthesis_method,reference,reference_year,comment,google_translate
Na-Ti-O,mp-7002,[43439],NaTiO2,0.006729608,R-3m,y,y,1193,,,{},{},2,,"TiO2, Na",,10.1007/BF00658014,1983,excess Na,FALSE
Na-Tl-O,mp-29454,[202028],Na3TlO2,0,Pnma,n,n,,,,{},{},,,"NaTl, Na2O2",from melt,10.1016/0022-5088(86)90647-8,1986,,TRUE
Na-Tl-O,mp-7652,[2265],Na5TlO4,0,Pbca,y,y,813,,,{},{},2,,"Na2O, Tl2O3",,10.1002/zaac.19784430121,1978,,FALSE
Na-Tl-O,mp-3056,"[25510, 33630, 644919]",NaTlO2,0,R-3m,y,y,893,,O2,{},{},1,,"Na2O2, Tl2O3",,10.1002/zaac.19613070309,1961,,FALSE
Na-U-O,mp-504540,[15137],Na11U5O16,0.087775306,P4_232,y,y,1273,,Ar,{},{},1,,"Na2CO3, UO2",,10.1016/0022-1902(70)80187-7,1970,,FALSE
Na-U-O,mp-1190548,[193200],Na2U2O7,0,C2/m,y,y,573,,dry air,{},{},1,,"Na2CO3, U3O8",,10.1016/j.jssc.2014.09.011,2015,"beta phase; high temperature phase of alpha Na2U2O7, which can be synthesized via solid state synthesis",FALSE
Na-U-O,mp-7725,[20579],Na2UO4,0.060765601,I4/mmm,y,?,,,,{},{},,,,,,,old refinement of mp-17560 (based on chemical name in ICSD),N/A
Na-U-O,mp-546142,[20503],Na2UO4,0.035740019,Cmmm,y,?,,,,{},{},,,,,10.1016/S0925-8388(02)00925-8,2003,old refinement of mp-554191,FALSE
Na-U-O,mp-554191,[79423],Na2UO4,0,Pbam,y,y,1193,AP,,{},{},1,,"Na2CO3, U3O8",,10.1006/jssc.1995.1137,1995,alpha phase,FALSE
Na-U-O,mp-17560,[79424],Na2UO4,0.00859164,Pbca,y,y,,,,{},{},,,,,10.1006/jssc.1995.1137,1995,beta phase; high temperature phase of mp-554191,FALSE
Na-U-O,mp-669528,[20142],Na2UO4,0.025124045,Pccn,y,?,,,,{},{},,,,,"Radiokhimiya 13, 309 (1971)",1971,old refinement of mp-17560 (based on chemical name in ICSD),FALSE
Na-U-O,mp-5327,"[194122, 194120, 380362, 68360, 22203, 29317, 20706]",Na4UO5,0,I4/m,y,y,833,,O2,"{""step1"": {""grind method"": [""glass mortar""], ""wet/dry"": [], ""liquid"": []}}","{""step1"": {""cool rate"": [], ""cool time"": [], ""cool medium"": [], ""cool type"": [""quench""], ""end temperature"": [""RT""], ""remark"": []}}",1,,"U3O8, Na2O2",,10.1016/0022-5088(91)90061-8,1991,,FALSE
Na-U-O,mp-5788,"[194121, 161784, 202889, 108856, 99549, 15136]",NaUO3,0,Pnma,y,y,1273,,Ar,{},{},1,,"Na2CO3, UO2",,10.1016/0022-1902(70)80187-7,1970,ICSD 161784 not found,FALSE
Na-U-O,mp-1077494,[83456],NaUO4,0.099131565,R-3m,?,?,,,,{},{},,,,,,,ICSD 83456 contain hydrogen,N/A
Na-V-O,mp-29793,[88780],Na2V3O7,0.003236888,P31c,y,?,,,,{},{},,,,,10.1103/PhysRevB.78.214426,2008,old refinement of mp-557315,FALSE
Na-V-O,mp-557315,[163234],Na2V3O7,0,P-3,y,y,973,0,vacuum,{},{},1,,"Na4V2O7, V2O3, V2O5",,10.1103/PhysRevB.78.214426,2008,,FALSE
Na-V-O,mp-1194140,[61174],Na2VO4,0.114823702,P-1,?,?,,,,{},{},,,,,,,ICSD 61174 contain hydrogen,N/A
Na-V-O,mp-1202270,[62002],Na2VO4,0.150123727,P2_1/c,?,?,,,,{},{},,,,,,,ICSD 62002 contain hydrogen,N/A
Na-V-O,mp-863288,[14079],Na3V5O23,0.466720159,P-1,?,?,,,,{},{},,,,,,,ICSD 14079 contain hydrogen,N/A
Na-V-O,mp-648893,[35635],Na4V2O7,0.00474466,C2/c,y,y,873,,Ar,"{""step1"": {""grind method"": [""mortar""], ""wet/dry"": [], ""liquid"": []}}","{""step1"": {""cool rate"": [], ""cool time"": [], ""cool medium"": [], ""cool type"": [""furnace cool""], ""end temperature"": [""RT""], ""remark"": []}}",1,,"Na2CO3, V2O5",,10.1016/j.calphad.2020.101802,2020,,FALSE
Na-V-O,mp-1196811,[61172],Na5V3O12,0.235755612,C222_1,?,?,,,,{},{},,,,,,,ICSD 61172 contain hydrogen,N/A
Na-V-O,mp-18233,[416170],Na5VO5,0.002066449,Pbcm,y,y,873,AP,,{},{},1,,"Na3VO4, Na2O; Na3VO4, NaOH",,10.1002/zaac.200500428,2006,,FALSE
Na-V-O,mp-560778,"[50667, 280067, 55686]",Na9V14O35,0,P2/c,y,y,953,,,{},{},1,,"Na2CO3, V2O4, V2O5",,10.1107/S010827019801587X,1999,,FALSE
Na-V-O,mp-1104369,"[248827, 248826]",NaV2O4,0.029748983,C2/c,y,n,,,,{},{},,,,potentiostatic method,10.1021/ic301505e,2012,other phase of mp-642750,FALSE
Na-V-O,mp-783905,"[194368, 194367]",NaV2O4,0.013807265,Pmmn,y,n,,,,{},{},,,Na0.71VO2,deintercalation,10.1021/cm403114k,2014,other phase of mp-642750,FALSE
Na-V-O,mp-642750,[159905],NaV2O4,0.017469722,Pnma,y,y,1573,6,,{},"{""step1"": {""cool rate"": [], ""cool time"": [], ""cool medium"": [], ""cool type"": [""quench""], ""end temperature"": [""RT""], ""remark"": []}}",1,,"Na4V2O7, V2O3",,10.1103/PhysRevB.78.224406,2008,,FALSE
Na-V-O,mp-505821,"[56669, 28424, 1898]",NaV2O5,0.012230912,Pmn2_1,y,?,,,,{},{},,,,,10.1107/S0108270198004855,1998,old refinement or other phase of mp-19111,FALSE
Na-V-O,mp-19111,"[59345, 88861, 92954, 92955, 88354, 95438, 251182, 409210, 89413, 89412, 88863, 89411, 88862, 88864]",NaV2O5,0.02865369,Pmmn,y,y,873,,,"{""step1"": {""grind method"": [""agate mortar""], ""wet/dry"": [], ""liquid"": [""n-pentane""]}}",{},1,,"NaVO3, V2O3, V2O5",,10.1002/zaac.201400381,2014,,FALSE
Na-V-O,mp-18528,[75159],NaV6O11,0.257285792,P6_3mc,y,y,,,,{},{},,,,,10.1006/jssc.1994.1329,1994,low temperature phase of mp-555198,FALSE
Na-V-O,mp-557578,[75160],NaV6O11,0.179397853,Cmc2_1,y,y,,,,{},{},,,,,10.1006/jssc.1994.1329,1994,low temperature phase of mp-555198,FALSE
Na-V-O,mp-555198,[71869],NaV6O11,0.39138664,P6_3/mmc,y,y,963,,,{},{},2,,"NaVO3, V2O3",,10.1107/S0108270192000751,1992,inhomogeneous,FALSE
Na-V-O,mp-19391,"[420136, 420138, 182323, 420137]",NaVO2,0,R-3m,y,y,873,,Ar/H2,{},{},2,,"Na2CO3, V2O3",,10.1103/PhysRevLett.101.166402,2008,,FALSE
Na-V-O,mp-19083,"[63480, 2103, 63479, 20556, 4137]",NaVO3,0,C2/c,y,y,773,AP,,"{""step1"": {""grind method"": [""ball milling""], ""wet/dry"": [], ""liquid"": [""ethanol""]}}",{},1,,"NH4VO3, NaHCO3",,10.1021/acs.chemmater.0c02244,2020,alpha phase,FALSE
Na-V-O,mp-555665,[29450],NaVO3,0.001081566,Pnma,y,n,,,,{},{},,,NaVO3·2H2O,decomposition,10.1107/S0108768184001828,1984,beta phase; other phase of mp-19083,TRUE
Na-W-O,mp-21896,[65780],Na2W2O7,0,Cmc2_1,y,y,,,,{},{},,,,,10.1107/S0108270189006104,1990,high temperature/pressure phase of mp-21634,FALSE
Na-W-O,mp-21634,"[290459, 1883, 24041]",Na2W2O7,0.020980629,Cmce,y,y,873,AP,,"{""step1"": {""grind method"": [""agate mortar""], ""wet/dry"": [], ""liquid"": []}}",{},2,,"Na2CO3, WO3",,10.1002/pssa.200306741,2004,,FALSE
Na-W-O,mp-18803,"[195519, 44524, 28474, 2133]",Na2WO4,0,Fd-3m,y,y,923,AP,,"{""step1"": {""grind method"": [""agate mortar""], ""wet/dry"": [], ""liquid"": []}}",{},1,,"Na2CO3, WO3",,10.1016/S0167-577X(99)00063-4,1999,,FALSE
Na-W-O,mp-1196713,[66146],Na2WO6,0.352064096,Pbca,?,?,,,,{},{},,,,,,,ICSD 66146 contain hydrogen,N/A
Na-W-O,mp-1191377,[59695],Na4W4O15,0.0852503,P-1,?,?,,,,{},{},,,,,,,ICSD 59695 contain hydrogen,N/A
Na-W-O,mp-19334,[85063],Na4WO5,0,P-1,y,y,998,,,{},{},1,,"Na2WO4, Na2O",,10.1002/zaac.19895730115,1989,,FALSE
Na-W-O,mp-29697,[280172],Na5W14O44,0.022530093,P-1,n,n,,,,{},{},,,"Na2WO4, WO3",electrolysis,10.1107/S0108270199002760,1999,,FALSE
Na-W-O,mp-19328,"[28866, 28343, 29141]",NaWO3,0.055926284,Pm-3m,y,y,1273,8,,"{""step1"": {""grind method"": [""mortar""], ""wet/dry"": [], ""liquid"": []}}",{},1,,"Na2WO4, WO2, WO3",,10.1021/acs.inorgchem.9b00248,2019,off-stoichimetric of original papers due to loss of Na,FALSE
Na-W-O,mp-1192304,[408189],NaWO4,0.191619239,P-1,?,?,,,,{},{},,,,,,,ICSD 408189 contain hydrogen,N/A
Na-Y-O,mp-30980,[2740],NaYO2,0,C2/c,y,y,1193,AP,,{},"{""step1"": {""cool rate"": [], ""cool time"": [], ""cool medium"": [], ""cool type"": [""quench""], ""end temperature"": [""RT""], ""remark"": []}}",1,,"Na2CO3, Y2O3",,10.1107/S0567740872003085,1972,,TRUE
Na-Zn-O,mp-8086,[25617],Na2Zn2O3,0.003696547,P2_1/c,y,y,733,,,"{""step1"": {""grind method"": [""agate mortar""], ""wet/dry"": [], ""liquid"": []}, ""step2"": {""grind method"": [""ball milling""], ""wet/dry"": [], ""liquid"": []}}",{},1,,"NaN3, NaNO2, ZnO",,10.1515/znb-1996-0703,1996,,TRUE
Na-Zn-O,mp-554845,[404913],Na2Zn2O3,0,P4_32_12,y,y,,,,{},{},,,,,10.1515/znb-1996-0703,1996,high temperature/pressure phase of mp-8086,FALSE
Na-Zn-O,mp-29488,[404761],Na2ZnO2,0,P2_1/c,y,y,663,,,"{""step1"": {""grind method"": [""agate mortar""], ""wet/dry"": [], ""liquid"": []}, ""step2"": {""grind method"": [""ball milling""], ""wet/dry"": [], ""liquid"": []}}",{},2,,"NaN3, NaNO2, ZnO",,10.1515/znb-1996-0515,1996,inhomogeneous,FALSE
Na-Zn-O,mp-1180211,[34379],NaZnO3,0.364253813,P4_2/mbc,?,?,,,,{},{},,,,,,,ICSD 34379 contain hydrogen,N/A
Nb-Ag-O,mp-16837,[67244],Nb3AgO8,0.036508222,Ibam,y,y,1373,,,{},{},,,,,10.1515/znb-1989-0421,1989,"high temperature/pressure phase of orthorhombic Nb3AgO8, which can be synthesized via solid state synthesis: 10.1016/j.jssc.2007.11.013",FALSE
Nb-Ag-O,mp-1199011,[180733],Nb4Ag2O11,0.028066365,R3,y,y,,,,{},{},,,,,10.1039/C0JM02540B,2011,low temperature phase of mp-984755,FALSE
Nb-Ag-O,mp-1200403,[180731],Nb4Ag2O11,0.032873647,R-3c,y,y,,,,{},{},,,,,10.1039/C0JM02540B,2011,high temperature phase of mp-984755,FALSE
Nb-Ag-O,mp-984755,[180732],Nb4Ag2O11,0.02971689,R3c,y,y,1073,AP,,"{""step1"": {""grind method"": [""agate mortar""], ""wet/dry"": [], ""liquid"": [""acetone""]}}","{""step1"": {""cool rate"": [], ""cool time"": [], ""cool medium"": [], ""cool type"": [""furnace cool""], ""end temperature"": [""RT""], ""remark"": []}}",1,,"Ag2O, Nb2O5",,10.1039/C0JM02540B,2011,,FALSE
Nb-Ag-O,mp-1202965,[166952],Nb4Ag2O11,0.030467361,Cc,y,?,1073,AP,,"{""step1"": {""grind method"": [""agate mortar""], ""wet/dry"": [], ""liquid"": [""acetone""]}}","{""step1"": {""cool rate"": [], ""cool time"": [], ""cool medium"": [], ""cool type"": [""furnace cool""], ""end temperature"": [""RT""], ""remark"": []}}",1,,"Ag2O, Nb2O5",,10.1039/B921115B,2010,other refinement of mp-984755,FALSE
Nb-Ag-O,mp-1205362,[55647],NbAgO3,0.050805722,Cmcm,y,y,,,,{},{},,,,,10.14723/tmrsj.37.73,2012,high temperature phase of mp-5537,FALSE
Nb-Ag-O,mp-1203481,[182047],NbAgO3,0.039520225,Pmc2_1,y,?,,,,{},{},1,,,,10.1021/cm103389q,2011,other refinement of mp-5537,FALSE
Nb-Ag-O,mp-12725,[55649],NbAgO3,0.070853922,Pm-3m,y,y,,,,{},{},,,,,10.14723/tmrsj.37.73,2012,high temperature phase of mp-5537,FALSE
Nb-Ag-O,mp-5537,"[55644, 55643, 55646, 186255, 55645, 280359, 247732, 164198, 186254, 247731, 290499, 247733]",NbAgO3,0.03848845,Pbcm,y,y,1318,,O2,"{""step1"": {""grind method"": [""mixed""], ""wet/dry"": [], ""liquid"": [""ethanol""]}}",{},2,,"Ag2O, Nb2O5",,10.14723/tmrsj.37.73,2012,"ICSD 290499, 186254, 186255 not found",FALSE
Nb-Al-O,mp-27927,[24078],NbAlO4,0,C2/m,y,y,1473,AP,,{},{},2,,"Al2O3, Nb2O5",,10.1021/cm801194b,1998,,FALSE
Nb-Bi-O,mp-645592,[245707],Nb3Bi5O15,0.017098473,Pnc2,y,y,1373,AP,,{},{},2,,"Bi2O3, Nb2O5",,10.1016/j.jssc.2007.05.017,2007,,FALSE
Nb-Bi-O,mp-555100,"[415850, 10247]",NbBiO4,0,P-1,y,y,,,,{},{},,,,,10.1016/S0022-4596(03)00225-1,2003,high temperature phase of mp-23413,FALSE
Nb-Bi-O,mp-23413,"[97422, 74338]",NbBiO4,0.004800157,Pnna,y,y,1248,AP,,"{""step1"": {""grind method"": [""mixed""], ""wet/dry"": [], ""liquid"": [""acetone""]}}",{},2,,"Bi2O3, Nb2O5",,10.1016/S0022-4596(03)00225-1,2003,,FALSE
Nb-Cd-O,mp-647999,[33672],Nb2Cd2O7,0.27671327,Fd-3m,y,?,,,,{},{},,,,,10.1103/PhysRev.98.903,1955,old refinement of mp-5472,FALSE
Nb-Cd-O,mp-560530,"[161923, 169002, 161922, 169001, 169000, 169003]",Nb2Cd2O7,0.005326009,Ima2,y,y,,,,{},{},,,,,10.1088/0953-8984/22/20/205401,2010,low temperature phase of mp-5472,FALSE
Nb-Cd-O,mp-5472,"[168998, 75603, 27122, 75604, 75601, 9714, 75602, 161921, 168999]",Nb2Cd2O7,0.009753017,Fd-3m,y,y,1273,AP,,{},{},2,,"CdO, Nb2O5",,10.1021/acs.chemmater.9b02466,2019,ICSD 161921 not found,FALSE
Nb-Co-O,mp-31513,"[172186, 27134]",Nb2Co4O9,0,P-3c1,y,y,1223,AP,,{},"{""step1"": {""cool rate"": [], ""cool time"": [], ""cool medium"": [], ""cool type"": [""furnace cool""], ""end temperature"": [""RT""], ""remark"": []}}",2,,"Co3O4, Nb2O5",,10.1016/j.jallcom.2016.04.053,2016,,FALSE
Nb-Co-O,mp-504552,"[182711, 15854, 182710]",Nb2CoO6,0.067642182,Pbcn,y,y,1370,AP,,{},"{""step1"": {""cool rate"": [], ""cool time"": [], ""cool medium"": [], ""cool type"": [""slow cooling""], ""end temperature"": [""RT""], ""remark"": []}}",1,,"Co3O4, Nb2O5",,10.1063/1.3562516,2011,,FALSE
Nb-Co-O,mp-31518,[16377],NbCoO4,0.01077883,C2/m,n,n,,,,{},{},,,"Nb2O5, CoC2O4·2H2O",from melt,10.1002/zaac.19804710109,1980,,TRUE
Nb-Cu-O,mp-4643,"[74424, 71606, 79455, 80316]",Nb2CuO6,0.042940718,Pbcn,y,y,,,,{},{},,,,,10.1039/JM9950501779,1995,high temperature phase of mp-1204490,FALSE
Nb-Cu-O,mp-1204490,"[81046, 79457]",Nb2CuO6,0.058515648,P2_1/c,y,y,973,,O2,{},"{""step1"": {""cool rate"": [], ""cool time"": [], ""cool medium"": [], ""cool type"": [""quench""], ""end temperature"": [""RT""], ""remark"": []}}",2,,"Nb2O5, CuO",,10.1039/JM9950501779,1995,,FALSE
Nb-Cu-O,mp-27383,[14099],Nb3CuO8,0.038490358,P2_1/c,y,y,1043,0,vacuum,{},{},1,,"Cu, CuO, Cu2O, Nb2O5, Nb2O4",,10.3891/acta.chem.scand.34a-0051,1980,inhomogeneous,FALSE
Nb-Cu-O,mp-17272,[201899],NbCuO3,0.017729132,C2/m,y,y,1223,,,{},{},1,,"Cu2O, Nb2O5",,10.1021/jp204631a,2011,,FALSE
Nb-Fe-O,mp-22366,"[151720, 201962, 15855, 31943]",Nb2FeO6,0.214753699,Pbcn,y,y,1223,0,vacuum,{},{},1,,"Nb2O5, Fe2O3, Fe",,10.1039/B405666C,2004,,FALSE
Nb-Fe-O,mp-1180571,[24216],Nb2FeO6,0.249313181,Pbcn,y,?,,,,{},{},,,,,10.1515/zkri-1930-0107,1930,old refinement of mp-22366,FALSE
Nb-Fe-O,mp-22194,"[14015, 8128]",NbFeO4,0.483160957,P2/c,y,y,1273,AP,,{},"{""step1"": {""cool rate"": [{""value"": ""300"", ""unit"": ""C/h""}], ""cool time"": [], ""cool medium"": [], ""cool type"": [], ""end temperature"": [""RT""], ""remark"": []}}",2,,"Fe2O3, Nb2O5",,10.1016/S0925-4005(99)00051-9,1999,,FALSE
Nb-Hg-O,mp-13803,[22226],Nb2Hg2O7,0.003522947,Fd-3m,y,y,773,0,vacuum,{},{},1,,"Nb2O5, HgO",,10.1021/ic50067a003,1968,,FALSE
Nb-In-O,mp-9595,[100695],NbInO4,0,P2/c,y,y,1373,AP,,{},{},1,,"In2O3, Nb2O5",,10.1016/S0009-2614(00)01265-3,2000,,FALSE
Nb-Ni-O,mp-646749,"[60758, 246598]",Nb2Ni4O9,0.006415005,Pbcn,y,y,1723,,O2,"{""step1"": {""grind method"": [""agate mortar""], ""wet/dry"": [], ""liquid"": [""acetone""]}}","{""step1"": {""cool rate"": [{""value"": ""120"", ""unit"": ""C/h""}], ""cool time"": [], ""cool medium"": [], ""cool type"": [], ""end temperature"": [""RT""], ""remark"": []}}",1,,"NiO, Nb2O5",,10.1103/PhysRevB.52.9595,1995,,FALSE
Nb-Ni-O,mp-651075,[60102],Nb2Ni4O9,0.008077231,Fdd2,y,y,1653,AP,,{},{},2,,"NiC2O4·2H2O, Nb2O5",,10.1002/zaac.19855250615,1985,other phase of mp-646749,TRUE
Nb-Ni-O,mp-22198,"[37212, 15853]",Nb2NiO6,0,Pbcn,y,y,1573,AP,,"{""step1"": {""grind method"": [""ball milling""], ""wet/dry"": [], ""liquid"": []}}",{},1,,"NiO, Nb2O5",,10.1039/D0TC03698F,2020,,FALSE
Nb-Ni-O,mp-541419,[74998],Nb6Ni6O,1.214505924,Fd-3m,n,n,,,,{},{},,,"NiO, Nb",arc melting,10.1016/0925-8388(94)90079-5,1994,,FALSE
Nb-Pb-O,mp-558608,"[24855, 166552]",Nb2PbO6,0.00879066,R3m,y,?,,,,{},{},,,,,10.1021/ic5012378,2014,old refinement of mp-1192537,FALSE
Nb-Pb-O,mp-1192537,[238256],Nb2PbO6,0.000872647,R3,y,y,1123,,,"{""step1"": {""grind method"": [""pestle and mortar""], ""wet/dry"": [], ""liquid"": []}}",{},1,,"PbO, Nb2O5",,10.1021/ic5012378,2014,,FALSE
Nb-Pb-O,mp-1192336,[238257],Nb2PbO6,0.000632778,R-3,y,?,,,,{},{},,,,,10.1021/ic5012378,2014,other refinement of mp-1192537,FALSE
Nb-Pt-O,mp-17525,[36277],Nb5Pt3O,0.021453598,P6_3/mcm,y,y,1673,,Ar,{},{},2,,"Nb, Pt, Nb2O5",,10.1016/0022-5088(80)90290-8,1980,,FALSE
Nb-Sb-O,mp-3612,"[40013, 20345, 40015, 40014]",NbSbO4,0.000286332,Pnna,y,y,,,,{},{},,,,,"Kristallografiya 26, 341 (1981)",1981,high temperature phase of mp-3491; from abstract,FALSE
Nb-Sb-O,mp-3491,"[40011, 40012, 20344]",NbSbO4,0,Pna2_1,y,y,1173,,Ar,"{""step1"": {""grind method"": [""ball milling""], ""wet/dry"": [], ""liquid"": [""ethanol""]}}",{},1,,"Sb2O3, Nb2O5",,10.1016/j.ijhydene.2012.08.123,2012,excess Sb2O3,FALSE
Nb-Se-O,mp-29193,[85668],Nb2Se4O13,0,Pc,y,y,673,0,vacuum,{},"{""step1"": {""cool rate"": [{""value"": ""6"", ""unit"": ""C/h""}], ""cool time"": [], ""cool medium"": [], ""cool type"": [], ""end temperature"": [{""value"": ""300"", ""unit"": ""C""}], ""remark"": []}, ""step2"": {""cool rate"": [], ""cool time"": [], ""cool medium"": [], ""cool type"": [""quench""], ""end temperature"": [""RT""], ""remark"": []}}",1,,"SeO2, Nb2O5",,10.1021/cm970633l,1998,,FALSE
Nb-Sn-O,mp-556524,[163817],Nb2Sn2O7,0.086566327,Fd-3m,?,?,,,,{},{},,,,,,,,N/A
Nb-Sn-O,mp-3324,"[202827, 163815]",Nb2SnO6,0,C2/c,y,y,1173,0,vacuum,"{""step1"": {""grind method"": [""agate mortar""], ""wet/dry"": [], ""liquid"": []}}",{},1,,"SnO, Nb2O5",,10.1006/jssc.2000.9005,2001,ICSD 163815 not found,FALSE
Nb-Te-O,mp-27322,[10034],Nb2Te3O11,0,P2_12_12,y,y,1023,,,{},{},1,,"TeO2, Nb2O5",,10.1016/0022-4596(79)90168-3,1979,,FALSE
Nb-Te-O,mp-505685,[90371],Nb2Te4O13,0.00598326,P-1,y,y,903,,,{},{},1,,"TeO2, Nb2O5",,10.1039/A900788A,1999,,FALSE
Nb-Tl-O,mp-33658,[79391],Nb2Tl2O7,0.028532571,Fd-3m,y,y,823,,vacuum;inert gas,{},{},2,,"Tl2CO3, Nb2O5",,10.1006/jssc.1995.1087,1995,,FALSE
Nb-W-O,mp-1198790,[23799],Nb12WO33,0.006562798,C2,y,y,1623,,,"{""step1"": {""grind method"": [""pestle and mortar""], ""wet/dry"": [], ""liquid"": []}}",{},1,,"Nb2O5, WO3",,10.1107/S0365110X65002712,1965,,FALSE
Nb-Zn-O,mp-18575,[66147],Nb2Zn3O8,0.022800678,C2/c,y,y,1473,AP,,"{""step1"": {""grind method"": [""mixed""], ""wet/dry"": [], ""liquid"": [""aceonte""]}}",{},1,,"Nb2O5, ZnO",,10.1016/j.ceramint.2008.11.029,2009,,FALSE
Nb-Zn-O,mp-17808,[98563],Nb2Zn4O9,0.047342647,P-3c1,y,y,1973,9,,{},{},1,,"Nb2O5, ZnO",,10.1016/S1293-2558(03)00024-4,2003,inhomogeneous,FALSE
Nb-Zn-O,mp-17177,[36290],Nb2ZnO6,0,Pbcn,y,y,1423,AP,,"{""step1"": {""grind method"": [""ball milling""], ""wet/dry"": [], ""liquid"": [""water""]}}",{},2,,"Nb2O5, ZnO",,10.1016/S0025-5408(97)00034-2,1997,,FALSE
Nd-Al-O,mp-561084,[249016],Nd4Al2O9,0,P2_1/c,y,y,1993,,Ar,"{""step1"": {""grind method"": [""agate mortar""], ""wet/dry"": [], ""liquid"": [""alcohol""]}}",{},1,,"Nd2O3, Al2O3",,10.1007/s11669-016-0468-9,2016,,FALSE
Nd-Al-O,mp-5899,"[10333, 90578, 35444, 90576, 90577, 249018, 90572, 90575, 90573, 90574]",NdAlO3,0,R-3c,y,y,1623,AP,,{},{},4,,"Al(NO3)3·9H2O, Nd(Ac)3",,10.1088/0953-8984/12/4/301,2000,,FALSE
Nd-Al-O,mp-14254,[35550],NdAlO3,0.027491123,Pm-3m,y,?,,,,{},{},,,,,10.1107/S0365110X56002965,1956,might be old refinement of mp-5899,FALSE
Nd-As-O,mp-555063,[415762],Nd2As4O9,0,P-1,n,n,,,,{},{},,,"NaCl, As2O3, Nd2O3",flux,10.1515/znb-2005-1201,2005,,FALSE
Nd-As-O,mp-1095216,[430620],NdAsO4,0.017573357,I4_1/a,y,y,,,,{},{},,,,,10.1515/znb-2015-0210,2016,high temperature/pressure phase of mp-556843,FALSE
Nd-As-O,mp-556843,[155918],NdAsO4,0.02196483,P2_1/c,y,y,973,,"vacuum,air",{},{},4,,"As2O5, Nd2O3",,10.1002/zaac.200400544,2005,,TRUE
Nd-Au-O,mp-3374,"[92487, 83390]",Nd4Au2O9,0,Pbcn,y,y,833,0.415,O2,{},{},1,,"Au2O3·xH2O, Nd2O3, KOH",,10.1002/1521-3749(200010)626:10<2178::AID-ZAAC2178>3.0.CO;2-%23,2000,ICSD 92487 doi not working; KOH as mineralizer,TRUE
Nd-Bi-O,mp-973451,"[422646, 423917]",Nd2BiO2,0,I4/mmm,y,y,1770,,,{},"{""step1"": {""cool rate"": [{""value"": ""50"", ""unit"": ""C/h""}], ""cool time"": [], ""cool medium"": [], ""cool type"": [], ""end temperature"": [""RT""], ""remark"": []}}",2,,"NdBi, Re2O3",,10.1002/zaac.201100529,2012,,FALSE
Nd-Co-O,mp-562894,"[91099, 91100]",Nd4Co3O10,0.01623059,P2_1/c,y,y,1273,AP,,{},{},1,,"Nd2O3, Co3O4",,10.1016/S0925-8388(98)00004-8,1998,,FALSE
Nd-Co-O,mp-20031,[28923],NdCoO3,0.165071174,Pm-3m,y,?,,,,{},{},,,,,10.1021/ja01633a031,1954,might be old refinement of mp-22599,FALSE
Nd-Co-O,mp-22599,"[164824, 164823, 153433, 164906, 153431, 153432, 164821, 153434, 164822, 82078]",NdCoO3,0,Pnma,y,y,1473,AP,,{},{},1,,"Nd2O3, Co2O3",,10.1103/PhysRevB.79.134103,2009,,FALSE
Nd-Cr-O,mp-19269,"[156328, 84995, 156329, 156325, 156321, 251096, 28488, 79349, 156319, 156320, 80332, 9984, 156324, 156322, 156327, 251095, 82073, 84769, 156326, 156323, 38022]",NdCrO3,0,Pnma,y,y,1273,AP,,"{""step1"": {""grind method"": [""agate mortar""], ""wet/dry"": [], ""liquid"": [""acetone""]}}",{},1,,"Nd2O3, Cr2O3",,10.1016/j.jallcom.2006.06.064,2007,,FALSE